 Entering Gaussian System, Link 0=g09.bin
 Initial command:
 /net/software/local/gaussian09/E.01/g09/l1.exe "/net/scratch/people/plgjawiczuk/slurm_jobdir/7318311/Gau-2222.inp" -scrdir="/net/scratch/people/plgjawiczuk/slurm_jobdir/7318311/"
 Entering Link 1 = /net/software/local/gaussian09/E.01/g09/l1.exe PID=      2224.
  
 Copyright (c) 1988,1990,1992,1993,1995,1998,2003,2009,2015,
            Gaussian, Inc.  All Rights Reserved.
  
 This is part of the Gaussian(R) 09 program.  It is based on
 the Gaussian(R) 03 system (copyright 2003, Gaussian, Inc.),
 the Gaussian(R) 98 system (copyright 1998, Gaussian, Inc.),
 the Gaussian(R) 94 system (copyright 1995, Gaussian, Inc.),
 the Gaussian 92(TM) system (copyright 1992, Gaussian, Inc.),
 the Gaussian 90(TM) system (copyright 1990, Gaussian, Inc.),
 the Gaussian 88(TM) system (copyright 1988, Gaussian, Inc.),
 the Gaussian 86(TM) system (copyright 1986, Carnegie Mellon
 University), and the Gaussian 82(TM) system (copyright 1983,
 Carnegie Mellon University). Gaussian is a federally registered
 trademark of Gaussian, Inc.
  
 This software contains proprietary and confidential information,
 including trade secrets, belonging to Gaussian, Inc.
  
 This software is provided under written license and may be
 used, copied, transmitted, or stored only in accord with that
 written license.
  
 The following legend is applicable only to US Government
 contracts under FAR:
  
                    RESTRICTED RIGHTS LEGEND
  
 Use, reproduction and disclosure by the US Government is
 subject to restrictions as set forth in subparagraphs (a)
 and (c) of the Commercial Computer Software - Restricted
 Rights clause in FAR 52.227-19.
  
 Gaussian, Inc.
 340 Quinnipiac St., Bldg. 40, Wallingford CT 06492
  
  
 ---------------------------------------------------------------
 Warning -- This program may not be used in any manner that
 competes with the business of Gaussian, Inc. or will provide
 assistance to any competitor of Gaussian, Inc.  The licensee
 of this program is prohibited from giving any competitor of
 Gaussian, Inc. access to this program.  By using this program,
 the user acknowledges that Gaussian, Inc. is engaged in the
 business of creating and licensing software in the field of
 computational chemistry and represents and warrants to the
 licensee that it is not a competitor of Gaussian, Inc. and that
 it will not use this program in any manner prohibited above.
 ---------------------------------------------------------------
  

 Cite this work as:
 Gaussian 09, Revision E.01,
 M. J. Frisch, G. W. Trucks, H. B. Schlegel, G. E. Scuseria, 
 M. A. Robb, J. R. Cheeseman, G. Scalmani, V. Barone, B. Mennucci, 
 G. A. Petersson, H. Nakatsuji, M. Caricato, X. Li, H. P. Hratchian, 
 A. F. Izmaylov, J. Bloino, G. Zheng, J. L. Sonnenberg, M. Hada, 
 M. Ehara, K. Toyota, R. Fukuda, J. Hasegawa, M. Ishida, T. Nakajima, 
 Y. Honda, O. Kitao, H. Nakai, T. Vreven, J. A. Montgomery, Jr., 
 J. E. Peralta, F. Ogliaro, M. Bearpark, J. J. Heyd, E. Brothers, 
 K. N. Kudin, V. N. Staroverov, T. Keith, R. Kobayashi, J. Normand, 
 K. Raghavachari, A. Rendell, J. C. Burant, S. S. Iyengar, J. Tomasi, 
 M. Cossi, N. Rega, J. M. Millam, M. Klene, J. E. Knox, J. B. Cross, 
 V. Bakken, C. Adamo, J. Jaramillo, R. Gomperts, R. E. Stratmann, 
 O. Yazyev, A. J. Austin, R. Cammi, C. Pomelli, J. W. Ochterski, 
 R. L. Martin, K. Morokuma, V. G. Zakrzewski, G. A. Voth, 
 P. Salvador, J. J. Dannenberg, S. Dapprich, A. D. Daniels, 
 O. Farkas, J. B. Foresman, J. V. Ortiz, J. Cioslowski, 
 and D. J. Fox, Gaussian, Inc., Wallingford CT, 2013.
 
 ******************************************
 Gaussian 09:  ES64L-G09RevE.01 30-Nov-2015
                27-Sep-2017 
 ******************************************
 %mem=14336MB
 %rwf=.//30743.rwf,500GB
 %NProcShared=8
 Will use up to    8 processors via shared memory.
 %chk=Tolbutamid_c1.chk
 ------------------------------------------
 #P td=(singlets,nstates=80) B3LYP/Def2TZVP
 ------------------------------------------
 1/38=1/1;
 2/12=2,17=6,18=5,40=1/2;
 3/5=44,7=101,11=9,16=1,25=1,30=1,74=-5/1,2,8,3;
 4//1;
 5/5=2,38=5/2;
 8/6=1,10=1,108=80/1;
 9/41=80,42=1,48=1,70=2/14;
 6/7=2,8=2,9=2,10=2/1;
 99/5=1,9=1/99;
 Leave Link    1 at Wed Sep 27 14:31:06 2017, MaxMem=  1879048192 cpu:         0.4
 (Enter /net/software/local/gaussian09/E.01/g09/l101.exe)
 -------
 conflex
 -------
 Symbolic Z-matrix:
 Charge =  0 Multiplicity = 1
 C                    -3.98094   2.95539   0.36271 
 C                    -3.13174   1.73108   0.15517 
 C                    -3.40603   0.54897   0.85016 
 C                    -2.64751  -0.593     0.65224 
 C                    -1.58717  -0.56145  -0.2512 
 C                    -1.29841   0.59883  -0.95955 
 C                    -2.07099   1.73409  -0.75036 
 S                    -0.60339  -2.02077  -0.48838 
 N                     0.51655  -2.03889   0.73964 
 O                    -1.43545  -3.16235  -0.24307 
 O                     0.12748  -1.86447  -1.72028 
 C                     1.71962  -1.30016   0.93256 
 N                     2.27226  -0.77584  -0.1813 
 C                     3.5525   -0.0797   -0.16362 
 C                     3.45467   1.38187  -0.60439 
 O                     2.16332  -1.21604   2.06065 
 H                     0.16685  -2.42181   1.60772 
 C                     2.67515   2.27753   0.35759 
 C                     2.58273   3.7256   -0.11981 
 H                    -4.18919   3.11785   1.42158 
 H                    -4.94422   2.8497   -0.144 
 H                    -3.49632   3.84854  -0.03107 
 H                    -4.23076   0.52128   1.55236 
 H                    -2.88343  -1.50762   1.17897 
 H                    -0.48956   0.60793  -1.6759 
 H                    -1.84581   2.6364   -1.30582 
 H                     1.8672   -1.04018  -1.06808 
 H                     4.24711  -0.6158   -0.81637 
 H                     3.93762  -0.14816   0.85287 
 H                     4.47509   1.76449  -0.71441 
 H                     3.00457   1.42897  -1.60285 
 H                     1.66867   1.87341   0.49644 
 H                     3.15231   2.2447    1.34187 
 H                     2.07819   3.79281  -1.08735 
 H                     2.0255    4.34198   0.58822 
 H                     3.57473   4.16947  -0.23589 
 
 NAtoms=     36 NQM=       36 NQMF=       0 NMMI=      0 NMMIF=      0
                NMic=       0 NMicF=      0.
                    Isotopes and Nuclear Properties:
 (Nuclear quadrupole moments (NQMom) in fm**2, nuclear magnetic moments (NMagM)
  in nuclear magnetons)

  Atom         1           2           3           4           5           6           7           8           9          10
 IAtWgt=          12          12          12          12          12          12          12          32          14          16
 AtmWgt=  12.0000000  12.0000000  12.0000000  12.0000000  12.0000000  12.0000000  12.0000000  31.9720718  14.0030740  15.9949146
 NucSpn=           0           0           0           0           0           0           0           0           2           0
 AtZEff=   0.0000000   0.0000000   0.0000000   0.0000000   0.0000000   0.0000000   0.0000000   0.0000000   0.0000000   0.0000000
 NQMom=    0.0000000   0.0000000   0.0000000   0.0000000   0.0000000   0.0000000   0.0000000   0.0000000   2.0440000   0.0000000
 NMagM=    0.0000000   0.0000000   0.0000000   0.0000000   0.0000000   0.0000000   0.0000000   0.0000000   0.4037610   0.0000000
 AtZNuc=   6.0000000   6.0000000   6.0000000   6.0000000   6.0000000   6.0000000   6.0000000  16.0000000   7.0000000   8.0000000

  Atom        11          12          13          14          15          16          17          18          19          20
 IAtWgt=          16          12          14          12          12          16           1          12          12           1
 AtmWgt=  15.9949146  12.0000000  14.0030740  12.0000000  12.0000000  15.9949146   1.0078250  12.0000000  12.0000000   1.0078250
 NucSpn=           0           0           2           0           0           0           1           0           0           1
 AtZEff=   0.0000000   0.0000000   0.0000000   0.0000000   0.0000000   0.0000000   0.0000000   0.0000000   0.0000000   0.0000000
 NQMom=    0.0000000   0.0000000   2.0440000   0.0000000   0.0000000   0.0000000   0.0000000   0.0000000   0.0000000   0.0000000
 NMagM=    0.0000000   0.0000000   0.4037610   0.0000000   0.0000000   0.0000000   2.7928460   0.0000000   0.0000000   2.7928460
 AtZNuc=   8.0000000   6.0000000   7.0000000   6.0000000   6.0000000   8.0000000   1.0000000   6.0000000   6.0000000   1.0000000

  Atom        21          22          23          24          25          26          27          28          29          30
 IAtWgt=           1           1           1           1           1           1           1           1           1           1
 AtmWgt=   1.0078250   1.0078250   1.0078250   1.0078250   1.0078250   1.0078250   1.0078250   1.0078250   1.0078250   1.0078250
 NucSpn=           1           1           1           1           1           1           1           1           1           1
 AtZEff=   0.0000000   0.0000000   0.0000000   0.0000000   0.0000000   0.0000000   0.0000000   0.0000000   0.0000000   0.0000000
 NQMom=    0.0000000   0.0000000   0.0000000   0.0000000   0.0000000   0.0000000   0.0000000   0.0000000   0.0000000   0.0000000
 NMagM=    2.7928460   2.7928460   2.7928460   2.7928460   2.7928460   2.7928460   2.7928460   2.7928460   2.7928460   2.7928460
 AtZNuc=   1.0000000   1.0000000   1.0000000   1.0000000   1.0000000   1.0000000   1.0000000   1.0000000   1.0000000   1.0000000

  Atom        31          32          33          34          35          36
 IAtWgt=           1           1           1           1           1           1
 AtmWgt=   1.0078250   1.0078250   1.0078250   1.0078250   1.0078250   1.0078250
 NucSpn=           1           1           1           1           1           1
 AtZEff=   0.0000000   0.0000000   0.0000000   0.0000000   0.0000000   0.0000000
 NQMom=    0.0000000   0.0000000   0.0000000   0.0000000   0.0000000   0.0000000
 NMagM=    2.7928460   2.7928460   2.7928460   2.7928460   2.7928460   2.7928460
 AtZNuc=   1.0000000   1.0000000   1.0000000   1.0000000   1.0000000   1.0000000
 Leave Link  101 at Wed Sep 27 14:31:06 2017, MaxMem=  1879048192 cpu:         0.5
 (Enter /net/software/local/gaussian09/E.01/g09/l202.exe)
                          Input orientation:                          
 ---------------------------------------------------------------------
 Center     Atomic      Atomic             Coordinates (Angstroms)
 Number     Number       Type             X           Y           Z
 ---------------------------------------------------------------------
      1          6           0       -3.980944    2.955392    0.362712
      2          6           0       -3.131743    1.731077    0.155165
      3          6           0       -3.406029    0.548974    0.850157
      4          6           0       -2.647508   -0.593004    0.652237
      5          6           0       -1.587167   -0.561453   -0.251196
      6          6           0       -1.298412    0.598826   -0.959545
      7          6           0       -2.070989    1.734085   -0.750357
      8         16           0       -0.603390   -2.020768   -0.488378
      9          7           0        0.516553   -2.038890    0.739637
     10          8           0       -1.435450   -3.162354   -0.243070
     11          8           0        0.127475   -1.864471   -1.720284
     12          6           0        1.719616   -1.300155    0.932555
     13          7           0        2.272259   -0.775836   -0.181298
     14          6           0        3.552500   -0.079698   -0.163621
     15          6           0        3.454674    1.381873   -0.604393
     16          8           0        2.163318   -1.216036    2.060651
     17          1           0        0.166847   -2.421809    1.607721
     18          6           0        2.675146    2.277530    0.357594
     19          6           0        2.582734    3.725602   -0.119808
     20          1           0       -4.189195    3.117848    1.421581
     21          1           0       -4.944222    2.849697   -0.143999
     22          1           0       -3.496323    3.848539   -0.031067
     23          1           0       -4.230755    0.521280    1.552357
     24          1           0       -2.883432   -1.507619    1.178970
     25          1           0       -0.489556    0.607925   -1.675900
     26          1           0       -1.845810    2.636398   -1.305818
     27          1           0        1.867198   -1.040178   -1.068083
     28          1           0        4.247106   -0.615797   -0.816366
     29          1           0        3.937621   -0.148157    0.852874
     30          1           0        4.475091    1.764490   -0.714411
     31          1           0        3.004575    1.428966   -1.602850
     32          1           0        1.668667    1.873411    0.496435
     33          1           0        3.152306    2.244701    1.341867
     34          1           0        2.078190    3.792805   -1.087345
     35          1           0        2.025499    4.341976    0.588216
     36          1           0        3.574733    4.169472   -0.235892
 ---------------------------------------------------------------------
                    Distance matrix (angstroms):
                    1          2          3          4          5
     1  C    0.000000
     2  C    1.504382   0.000000
     3  C    2.521701   1.398433   0.000000
     4  C    3.801709   2.425472   1.385150   0.000000
     5  C    4.298285   2.794018   2.398809   1.393381   0.000000
     6  C    3.807590   2.426041   2.778409   2.416270   1.389743
     7  C    2.525558   1.394696   2.397596   2.777587   2.398487
     8  S    6.074076   4.569798   4.031133   2.741885   1.775858
     9  N    6.731449   5.278667   4.700628   3.479872   2.755033
    10  O    6.653821   5.194388   4.341922   2.978627   2.605335
    11  O    6.667013   5.202670   4.991747   3.866008   2.606928
    12  C    7.136581   5.773074   5.449615   4.432879   3.589117
    13  N    7.302093   5.966662   5.921315   4.993227   3.866008
    14  C    8.138893   6.932506   7.060035   6.274489   5.162939
    15  C    7.661571   6.639259   7.062484   6.535739   5.414926
    16  O    7.618121   6.352482   5.966421   5.051321   4.454128
    17  H    6.904238   5.498825   4.707961   3.489709   3.161180
    18  C    6.690520   5.836056   6.341231   6.054538   5.157302
    19  C    6.626305   6.058794   6.848144   6.826554   5.981988
    20  H    1.091313   2.155261   2.745722   4.091346   4.806869
    21  H    1.093541   2.150788   2.940699   4.214389   4.787197
    22  H    1.089785   2.156675   3.416407   4.573259   4.810547
    23  H    2.720765   2.150252   1.083524   2.135068   3.378413
    24  H    4.667899   3.405729   2.147277   1.081494   2.149630
    25  H    4.675075   3.405205   3.858789   3.393996   2.145222
    26  H    2.728470   2.146556   3.382285   3.860795   3.377184
    27  H    7.225823   5.845135   5.831978   4.852014   3.581776
    28  H    9.046791   7.803788   7.918615   7.049327   5.861835
    29  H    8.519152   7.348076   7.376666   6.603186   5.649165
    30  H    8.607146   7.656448   8.126340   7.626069   6.509651
    31  H    7.415584   6.390328   6.920078   6.412474   5.183901
    32  H    5.753840   4.814630   5.256595   4.973615   4.133760
    33  H    7.235128   6.415711   6.791835   6.493535   5.733668
    34  H    6.286257   5.739160   6.659806   6.677851   5.752699
    35  H    6.168535   5.796678   6.630006   6.796699   6.148137
    36  H    7.675974   7.146714   7.938422   7.885825   7.001935
                    6          7          8          9         10
     6  C    0.000000
     7  C    1.389046   0.000000
     8  S    2.750877   4.039975   0.000000
     9  N    3.624757   4.811527   1.662114   0.000000
    10  O    3.831265   4.963503   1.433778   2.457275   0.000000
    11  O    2.946135   4.327078   1.440897   2.496601   2.511851
    12  C    4.036665   5.138822   2.816858   1.424889   3.847638
    13  N    3.904492   5.048498   3.148573   2.350730   4.409806
    14  C    4.962382   5.937819   4.598330   3.724417   5.864190
    15  C    4.830230   5.538800   5.297104   4.705379   6.685347
    16  O    4.939523   5.876592   3.847053   2.265834   4.695361
    17  H    4.226355   5.276353   2.268861   1.011183   2.557575
    18  C    4.510218   4.903946   5.471730   4.841174   6.844716
    19  C    5.054224   5.101066   6.580881   6.183617   7.975270
    20  H    4.513520   3.334503   6.550673   7.014347   7.056565
    21  H    4.361590   3.141294   6.533211   7.382355   6.961756
    22  H    4.031565   2.649504   6.559494   7.166518   7.310593
    23  H    3.861904   3.382008   4.876924   5.454532   4.960489
    24  H    3.394502   3.858887   2.870882   3.469173   2.618587
    25  H    1.080507   2.150766   2.886727   3.721922   4.142791
    26  H    2.138048   1.083241   4.888866   5.623430   5.909598
    27  H    3.566399   4.827712   2.720555   2.467695   4.011454
    28  H    5.678783   6.741263   5.060517   4.285250   6.253404
    29  H    5.590965   6.497429   5.091798   3.910422   6.257505
    30  H    5.895100   6.546249   6.338000   5.678906   7.709115
    31  H    4.429297   5.155695   5.114697   4.868627   6.530164
    32  H    3.542316   3.944481   4.614838   4.085659   5.961656
    33  H    5.273926   5.649862   5.970701   5.065474   7.266070
    34  H    4.649653   4.644090   6.430184   6.307554   7.837902
    35  H    5.239763   5.037270   6.968115   6.558605   8.305671
    36  H    6.084466   6.170086   7.472585   6.989126   8.880183
                   11         12         13         14         15
    11  O    0.000000
    12  C    3.144983   0.000000
    13  N    2.855469   1.349442   0.000000
    14  C    4.164062   2.459793   1.457374   0.000000
    15  C    4.780608   3.544843   2.496562   1.529719   0.000000
    16  O    4.342879   1.215133   2.287352   2.858055   3.939440
    17  H    3.374580   2.031022   3.215988   4.481716   5.492836
    18  C    5.288135   3.747459   3.126622   2.568645   1.528164
    19  C    6.311793   5.206791   4.512551   3.927171   2.547188
    20  H    7.302634   7.394048   7.712353   8.524729   8.096105
    21  H    7.101420   7.923823   8.076105   8.987548   8.538614
    22  H    6.973080   7.392133   7.394860   8.070596   7.397939
    23  H    5.949467   6.253695   6.853996   7.992798   8.028575
    24  H    4.195066   4.614305   5.382099   6.727758   7.190350
    25  H    2.548615   3.914747   3.431654   4.370129   4.159816
    26  H    4.931882   5.763595   5.465014   6.150085   5.491900
    27  H    2.032600   2.022850   1.010118   2.140284   2.932818
    28  H    4.398592   3.148853   2.080612   1.093598   2.159529
    29  H    4.907554   2.500599   2.058379   1.089159   2.167454
    30  H    5.751774   4.438151   3.404399   2.134379   1.095331
    31  H    4.374725   3.940495   2.723646   2.155845   1.096231
    32  H    4.610952   3.203797   2.800385   2.792693   2.154821
    33  H    5.950770   3.845275   3.495448   2.798121   2.150308
    34  H    6.017530   5.490611   4.661659   4.245366   2.817897
    35  H    6.888516   5.660899   5.181220   4.737952   3.496722
    36  H    7.106017   5.892669   5.114244   4.249843   2.814412
                   16         17         18         19         20
    16  O    0.000000
    17  H    2.375906   0.000000
    18  C    3.920124   5.471578   0.000000
    19  C    5.417573   6.827264   1.527536   0.000000
    20  H    7.716565   7.049649   6.996955   6.971676   0.000000
    21  H    8.479846   7.548531   7.657267   7.577787   1.758696
    22  H    7.877610   7.444576   6.380138   6.080947   1.767531
    23  H    6.645359   5.291856   7.225188   7.712811   2.600191
    24  H    5.131478   3.213063   6.774939   7.678046   4.812361
    25  H    4.932179   4.515786   4.115582   4.645460   5.438881
    26  H    6.499805   6.174541   4.830608   4.712217   3.627941
    27  H    3.147632   3.458327   3.700341   4.911606   7.756771
    28  H    3.602733   5.078030   3.495795   4.701390   9.493139
    29  H    2.397341   4.467440   2.779047   4.217563   8.776979
    30  H    4.682820   6.440370   2.156897   2.789360   9.025735
    31  H    4.596193   5.760984   2.161464   2.766207   7.984349
    32  H    3.498019   4.683944   1.093430   2.155432   6.059626
    33  H    3.670347   5.546166   1.094328   2.157307   7.393671
    34  H    5.916554   7.038327   2.177215   1.093256   6.784570
    35  H    5.751396   7.088213   2.176503   1.091662   6.388694
    36  H    6.022450   7.645756   2.177367   1.092958   8.008228
                   21         22         23         24         25
    21  H    0.000000
    22  H    1.762626   0.000000
    23  H    2.967859   3.757296   0.000000
    24  H    4.998330   5.525238   2.463966   0.000000
    25  H    5.216925   4.716747   4.942238   4.284443   0.000000
    26  H    3.315943   2.412150   4.281454   4.942035   2.468013
    27  H    7.898133   7.330915   6.818349   5.276005   2.939383
    28  H    9.845925   8.972607   8.875693   7.457968   4.967118
    29  H    9.426984   8.486369   8.225557   6.962847   5.154246
    30  H    9.498763   8.267627   9.081606   8.272814   5.187468
    31  H    8.205492   7.112419   7.945390   7.143576   3.590041
    32  H    6.715176   5.554864   6.143811   5.711289   3.313370
    33  H    8.253944   6.975780   7.584463   7.108908   5.004909
    34  H    7.147980   5.673978   7.581140   7.605812   4.133180
    35  H    7.165197   5.578307   7.393781   7.659266   5.039331
    36  H    8.621070   7.081298   8.799590   8.714304   5.592556
                   26         27         28         29         30
    26  H    0.000000
    27  H    5.230694   0.000000
    28  H    6.923869   2.430519   0.000000
    29  H    6.772132   2.961829   1.760917   0.000000
    30  H    6.408102   3.846083   2.393353   2.530509   0.000000
    31  H    5.007230   2.770609   2.518630   3.064061   1.750519
    32  H    4.022663   3.313025   3.816798   3.059728   3.058435
    33  H    5.669641   4.271977   3.746866   2.565464   2.491715
    34  H    4.096680   4.837625   4.920711   4.770023   3.162005
    35  H    4.635018   5.633468   5.611408   4.887489   3.786921
    36  H    5.733877   5.545148   4.867015   4.467552   2.612195
                   31         32         33         34         35
    31  H    0.000000
    32  H    2.527683   0.000000
    33  H    3.059184   1.747511   0.000000
    34  H    2.590689   2.521932   3.074317   0.000000
    35  H    3.774253   2.495910   2.497248   1.764049   0.000000
    36  H    3.115129   3.072668   2.524383   1.762524   1.763246
                   36
    36  H    0.000000
 Stoichiometry    C12H18N2O3S
 Framework group  C1[X(C12H18N2O3S)]
 Deg. of freedom   102
 Full point group                 C1      NOp   1
 Largest Abelian subgroup         C1      NOp   1
 Largest concise Abelian subgroup C1      NOp   1
                         Standard orientation:                         
 ---------------------------------------------------------------------
 Center     Atomic      Atomic             Coordinates (Angstroms)
 Number     Number       Type             X           Y           Z
 ---------------------------------------------------------------------
      1          6           0       -3.980944    2.955392    0.362712
      2          6           0       -3.131743    1.731077    0.155165
      3          6           0       -3.406029    0.548974    0.850157
      4          6           0       -2.647508   -0.593004    0.652237
      5          6           0       -1.587167   -0.561453   -0.251196
      6          6           0       -1.298412    0.598826   -0.959545
      7          6           0       -2.070989    1.734085   -0.750357
      8         16           0       -0.603390   -2.020768   -0.488378
      9          7           0        0.516553   -2.038890    0.739637
     10          8           0       -1.435450   -3.162354   -0.243070
     11          8           0        0.127475   -1.864471   -1.720284
     12          6           0        1.719616   -1.300155    0.932555
     13          7           0        2.272259   -0.775836   -0.181298
     14          6           0        3.552500   -0.079698   -0.163621
     15          6           0        3.454674    1.381873   -0.604393
     16          8           0        2.163318   -1.216036    2.060651
     17          1           0        0.166847   -2.421809    1.607721
     18          6           0        2.675146    2.277530    0.357594
     19          6           0        2.582734    3.725602   -0.119808
     20          1           0       -4.189195    3.117848    1.421581
     21          1           0       -4.944222    2.849697   -0.143999
     22          1           0       -3.496323    3.848539   -0.031067
     23          1           0       -4.230755    0.521280    1.552357
     24          1           0       -2.883432   -1.507619    1.178970
     25          1           0       -0.489556    0.607925   -1.675900
     26          1           0       -1.845810    2.636398   -1.305818
     27          1           0        1.867198   -1.040178   -1.068083
     28          1           0        4.247106   -0.615797   -0.816366
     29          1           0        3.937621   -0.148157    0.852874
     30          1           0        4.475091    1.764490   -0.714411
     31          1           0        3.004575    1.428966   -1.602850
     32          1           0        1.668667    1.873411    0.496435
     33          1           0        3.152306    2.244701    1.341867
     34          1           0        2.078190    3.792805   -1.087345
     35          1           0        2.025499    4.341976    0.588216
     36          1           0        3.574733    4.169472   -0.235892
 ---------------------------------------------------------------------
 Rotational constants (GHZ):      0.4146991      0.2945736      0.2002150
 Leave Link  202 at Wed Sep 27 14:31:06 2017, MaxMem=  1879048192 cpu:         0.2
 (Enter /net/software/local/gaussian09/E.01/g09/l301.exe)
 Standard basis: def2TZVP (5D, 7F)
 Ernie: Thresh=  0.10000D-02 Tol=  0.10000D-05 Strict=F.
 There are   762 symmetry adapted cartesian basis functions of A   symmetry.
 There are   672 symmetry adapted basis functions of A   symmetry.
   672 basis functions,  1080 primitive gaussians,   762 cartesian basis functions
    72 alpha electrons       72 beta electrons
       nuclear repulsion energy      1537.0751020280 Hartrees.
 IExCor=  402 DFT=T Ex+Corr=B3LYP ExCW=0 ScaHFX=  0.200000
 ScaDFX=  0.800000  0.720000  1.000000  0.810000 ScalE2=  1.000000  1.000000
 IRadAn=      0 IRanWt=     -1 IRanGd=            0 ICorTp=0 IEmpDi=  4
 NAtoms=   36 NActive=   36 NUniq=   36 SFac= 1.00D+00 NAtFMM=   60 NAOKFM=F Big=F
 Integral buffers will be    131072 words long.
 Regular integral format.
 Two-electron integral symmetry is turned on.
 Leave Link  301 at Wed Sep 27 14:31:06 2017, MaxMem=  1879048192 cpu:         0.3
 (Enter /net/software/local/gaussian09/E.01/g09/l302.exe)
 NPDir=0 NMtPBC=     1 NCelOv=     1 NCel=       1 NClECP=     1 NCelD=      1
         NCelK=      1 NCelE2=     1 NClLst=     1 CellRange=     0.0.
 One-electron integrals computed using PRISM.
   1 Symmetry operations used in ECPInt.
 ECPInt:  NShTT=   37128 NPrTT=  113514 LenC2=   32700 LenP2D=   70726.
 LDataN:  DoStor=T MaxTD1= 6 Len=  172
 NBasis=   672 RedAO= T EigKep=  6.82D-06  NBF=   672
 NBsUse=   672 1.00D-06 EigRej= -1.00D+00 NBFU=   672
 Precomputing XC quadrature grid using
 IXCGrd= 4 IRadAn=           0 IRanWt=          -1 IRanGd=           0 AccXCQ= 0.00D+00.
 Generated NRdTot=       0 NPtTot=           0 NUsed=           0 NTot=          32
 NSgBfM=   750   750   750   751   751 MxSgAt=    36 MxSgA2=    36.
 Leave Link  302 at Wed Sep 27 14:31:07 2017, MaxMem=  1879048192 cpu:         7.5
 (Enter /net/software/local/gaussian09/E.01/g09/l308.exe)
 Leave Link  308 at Wed Sep 27 14:31:08 2017, MaxMem=  1879048192 cpu:         2.8
 (Enter /net/software/local/gaussian09/E.01/g09/l303.exe)
 DipDrv:  MaxL=1.
 Leave Link  303 at Wed Sep 27 14:31:08 2017, MaxMem=  1879048192 cpu:         1.0
 (Enter /net/software/local/gaussian09/E.01/g09/l401.exe)
 ExpMin= 9.52D-02 ExpMax= 6.07D+04 ExpMxC= 2.07D+03 IAcc=2 IRadAn=         4 AccDes= 0.00D+00
 Harris functional with IExCor=  402 and IRadAn=       4 diagonalized for initial guess.
 HarFok:  IExCor=  402 AccDes= 0.00D+00 IRadAn=         4 IDoV= 1 UseB2=F ITyADJ=14
 ICtDFT=  3500011 ScaDFX=  1.000000  1.000000  1.000000  1.000000
 FoFCou: FMM=F IPFlag=           0 FMFlag=      100000 FMFlg1=           0
         NFxFlg=           0 DoJE=T BraDBF=F KetDBF=T FulRan=T
         wScrn=  0.000000 ICntrl=     500 IOpCl=  0 I1Cent=   200000004 NGrid=           0
         NMat0=    1 NMatS0=      1 NMatT0=    0 NMatD0=    1 NMtDS0=    0 NMtDT0=    0
 Petite list used in FoFCou.
 Harris En= -1201.97684502873    
 JPrj=0 DoOrth=F DoCkMO=F.
 Leave Link  401 at Wed Sep 27 14:31:11 2017, MaxMem=  1879048192 cpu:        25.0
 (Enter /net/software/local/gaussian09/E.01/g09/l502.exe)
 Closed shell SCF:
 Using DIIS extrapolation, IDIIS=  1040.
 Integral symmetry usage will be decided dynamically.
 IVT=     1772166 IEndB=     1772166 NGot=  1879048192 MDV=  1877874073
 LenX=  1877874073 LenY=  1877292667
 Requested convergence on RMS density matrix=1.00D-08 within 128 cycles.
 Requested convergence on MAX density matrix=1.00D-06.
 Requested convergence on             energy=1.00D-06.
 No special actions if energy rises.
 Fock matrices will be formed incrementally for  20 cycles.
 Integral accuracy reduced to 1.0D-05 until final iterations.

 Cycle   1  Pass 0  IDiag  1:
 FoFJK:  IHMeth= 1 ICntrl=       0 DoSepK=F KAlg= 0 I1Cent=   0 FoldK=F
 IRaf= 780000000 NMat=   1 IRICut=       1 DoRegI=T DoRafI=F ISym2E= 0.
 FoFCou: FMM=F IPFlag=           0 FMFlag=      100000 FMFlg1=           0
         NFxFlg=           0 DoJE=F BraDBF=F KetDBF=F FulRan=T
         wScrn=  0.000000 ICntrl=       0 IOpCl=  0 I1Cent=           0 NGrid=           0
         NMat0=    1 NMatS0=      1 NMatT0=    0 NMatD0=    1 NMtDS0=    0 NMtDT0=    0
 Symmetry not used in FoFCou.
 E= -1201.10435480228    
 DIIS: error= 2.91D-02 at cycle   1 NSaved=   1.
 NSaved= 1 IEnMin= 1 EnMin= -1201.10435480228     IErMin= 1 ErrMin= 2.91D-02
 ErrMax= 2.91D-02  0.00D+00 EMaxC= 1.00D-01 BMatC= 9.56D-01 BMatP= 9.56D-01
 IDIUse=3 WtCom= 7.09D-01 WtEn= 2.91D-01
 Coeff-Com:  0.100D+01
 Coeff-En:   0.100D+01
 Coeff:      0.100D+01
 Gap=     0.275 Goal=   None    Shift=    0.000
 GapD=    0.275 DampG=1.000 DampE=0.500 DampFc=0.5000 IDamp=-1.
 Damping current iteration by 5.00D-01
 RMSDP=3.50D-03 MaxDP=3.88D-01              OVMax= 2.73D-01

 Cycle   2  Pass 0  IDiag  1:
 RMSU=  1.75D-03    CP:  9.88D-01
 E= -1201.20917892055     Delta-E=       -0.104824118273 Rises=F Damp=T
 DIIS: error= 1.07D-02 at cycle   2 NSaved=   2.
 NSaved= 2 IEnMin= 2 EnMin= -1201.20917892055     IErMin= 2 ErrMin= 1.07D-02
 ErrMax= 1.07D-02  0.00D+00 EMaxC= 1.00D-01 BMatC= 1.98D-01 BMatP= 9.56D-01
 IDIUse=3 WtCom= 8.93D-01 WtEn= 1.07D-01
 Coeff-Com:  0.268D+00 0.732D+00
 Coeff-En:   0.436D+00 0.564D+00
 Coeff:      0.285D+00 0.715D+00
 Gap=     0.289 Goal=   None    Shift=    0.000
 RMSDP=1.23D-03 MaxDP=1.12D-01 DE=-1.05D-01 OVMax= 2.47D-01

 Cycle   3  Pass 0  IDiag  1:
 RMSU=  9.61D-04    CP:  9.77D-01  5.63D-01
 E= -1201.73330036490     Delta-E=       -0.524121444346 Rises=F Damp=F
 DIIS: error= 8.39D-03 at cycle   3 NSaved=   3.
 NSaved= 3 IEnMin= 3 EnMin= -1201.73330036490     IErMin= 3 ErrMin= 8.39D-03
 ErrMax= 8.39D-03  0.00D+00 EMaxC= 1.00D-01 BMatC= 1.38D-01 BMatP= 1.98D-01
 IDIUse=3 WtCom= 9.16D-01 WtEn= 8.39D-02
 Coeff-Com:  0.969D-01 0.455D+00 0.448D+00
 Coeff-En:   0.000D+00 0.000D+00 0.100D+01
 Coeff:      0.888D-01 0.417D+00 0.494D+00
 Gap=     0.231 Goal=   None    Shift=    0.000
 RMSDP=6.21D-04 MaxDP=3.10D-02 DE=-5.24D-01 OVMax= 9.29D-02

 Cycle   4  Pass 0  IDiag  1:
 RMSU=  4.63D-04    CP:  9.84D-01  6.51D-01  6.04D-01
 E= -1201.83827069609     Delta-E=       -0.104970331189 Rises=F Damp=F
 DIIS: error= 4.14D-03 at cycle   4 NSaved=   4.
 NSaved= 4 IEnMin= 4 EnMin= -1201.83827069609     IErMin= 4 ErrMin= 4.14D-03
 ErrMax= 4.14D-03  0.00D+00 EMaxC= 1.00D-01 BMatC= 1.76D-02 BMatP= 1.38D-01
 IDIUse=3 WtCom= 9.59D-01 WtEn= 4.14D-02
 Coeff-Com:  0.650D-02 0.111D+00 0.285D+00 0.597D+00
 Coeff-En:   0.000D+00 0.000D+00 0.118D+00 0.882D+00
 Coeff:      0.623D-02 0.107D+00 0.278D+00 0.609D+00
 Gap=     0.219 Goal=   None    Shift=    0.000
 RMSDP=1.87D-04 MaxDP=1.26D-02 DE=-1.05D-01 OVMax= 3.40D-02

 Cycle   5  Pass 0  IDiag  1:
 RMSU=  1.31D-04    CP:  9.84D-01  6.36D-01  6.93D-01  7.87D-01
 E= -1201.85192843263     Delta-E=       -0.013657736541 Rises=F Damp=F
 DIIS: error= 1.43D-03 at cycle   5 NSaved=   5.
 NSaved= 5 IEnMin= 5 EnMin= -1201.85192843263     IErMin= 5 ErrMin= 1.43D-03
 ErrMax= 1.43D-03  0.00D+00 EMaxC= 1.00D-01 BMatC= 1.67D-03 BMatP= 1.76D-02
 IDIUse=3 WtCom= 9.86D-01 WtEn= 1.43D-02
 Coeff-Com: -0.518D-02 0.250D-01 0.113D+00 0.343D+00 0.524D+00
 Coeff-En:   0.000D+00 0.000D+00 0.000D+00 0.314D-01 0.969D+00
 Coeff:     -0.511D-02 0.246D-01 0.111D+00 0.339D+00 0.531D+00
 Gap=     0.212 Goal=   None    Shift=    0.000
 RMSDP=6.39D-05 MaxDP=6.68D-03 DE=-1.37D-02 OVMax= 1.22D-02

 Cycle   6  Pass 0  IDiag  1:
 RMSU=  4.69D-05    CP:  9.83D-01  6.43D-01  6.89D-01  8.05D-01  6.91D-01
 E= -1201.85322215846     Delta-E=       -0.001293725832 Rises=F Damp=F
 DIIS: error= 4.03D-04 at cycle   6 NSaved=   6.
 NSaved= 6 IEnMin= 6 EnMin= -1201.85322215846     IErMin= 6 ErrMin= 4.03D-04
 ErrMax= 4.03D-04  0.00D+00 EMaxC= 1.00D-01 BMatC= 2.16D-04 BMatP= 1.67D-03
 IDIUse=3 WtCom= 9.96D-01 WtEn= 4.03D-03
 Coeff-Com: -0.338D-02 0.403D-02 0.367D-01 0.135D+00 0.320D+00 0.507D+00
 Coeff-En:   0.000D+00 0.000D+00 0.000D+00 0.000D+00 0.774D-01 0.923D+00
 Coeff:     -0.337D-02 0.401D-02 0.366D-01 0.135D+00 0.319D+00 0.509D+00
 Gap=     0.211 Goal=   None    Shift=    0.000
 RMSDP=3.29D-05 MaxDP=2.58D-03 DE=-1.29D-03 OVMax= 3.22D-03

 Cycle   7  Pass 0  IDiag  1:
 RMSU=  3.05D-05    CP:  9.84D-01  6.44D-01  6.92D-01  8.14D-01  7.72D-01
                    CP:  9.47D-01
 E= -1201.85339329422     Delta-E=       -0.000171135757 Rises=F Damp=F
 DIIS: error= 7.03D-05 at cycle   7 NSaved=   7.
 NSaved= 7 IEnMin= 7 EnMin= -1201.85339329422     IErMin= 7 ErrMin= 7.03D-05
 ErrMax= 7.03D-05  0.00D+00 EMaxC= 1.00D-01 BMatC= 1.61D-05 BMatP= 2.16D-04
 IDIUse=1 WtCom= 1.00D+00 WtEn= 0.00D+00
 Coeff-Com: -0.123D-02-0.711D-03 0.805D-02 0.382D-01 0.125D+00 0.283D+00
 Coeff-Com:  0.547D+00
 Coeff:     -0.123D-02-0.711D-03 0.805D-02 0.382D-01 0.125D+00 0.283D+00
 Coeff:      0.547D+00
 Gap=     0.211 Goal=   None    Shift=    0.000
 RMSDP=2.34D-05 MaxDP=1.51D-03 DE=-1.71D-04 OVMax= 6.18D-04

 Cycle   8  Pass 0  IDiag  1:
 RMSU=  1.50D-05    CP:  9.84D-01  6.45D-01  6.89D-01  8.26D-01  8.34D-01
                    CP:  1.16D+00  1.35D+00
 E= -1201.85340324449     Delta-E=       -0.000009950274 Rises=F Damp=F
 DIIS: error= 4.11D-05 at cycle   8 NSaved=   8.
 NSaved= 8 IEnMin= 8 EnMin= -1201.85340324449     IErMin= 8 ErrMin= 4.11D-05
 ErrMax= 4.11D-05  0.00D+00 EMaxC= 1.00D-01 BMatC= 1.04D-06 BMatP= 1.61D-05
 IDIUse=1 WtCom= 1.00D+00 WtEn= 0.00D+00
 Coeff-Com: -0.307D-03-0.590D-03 0.129D-02 0.865D-02 0.398D-01 0.104D+00
 Coeff-Com:  0.272D+00 0.575D+00
 Coeff:     -0.307D-03-0.590D-03 0.129D-02 0.865D-02 0.398D-01 0.104D+00
 Coeff:      0.272D+00 0.575D+00
 Gap=     0.211 Goal=   None    Shift=    0.000
 RMSDP=3.01D-05 MaxDP=2.16D-03 DE=-9.95D-06 OVMax= 4.19D-04

 Cycle   9  Pass 0  IDiag  1:
 RMSU=  8.14D-06    CP:  9.84D-01  6.46D-01  6.86D-01  8.38D-01  9.11D-01
                    CP:  1.40D+00  1.97D+00  1.96D+00
 E= -1201.85339835317     Delta-E=        0.000004891320 Rises=F Damp=F
 DIIS: error= 3.38D-05 at cycle   9 NSaved=   9.
 NSaved= 9 IEnMin= 8 EnMin= -1201.85340324449     IErMin= 9 ErrMin= 3.38D-05
 ErrMax= 3.38D-05  0.00D+00 EMaxC= 1.00D-01 BMatC= 3.61D-07 BMatP= 1.04D-06
 IDIUse=1 WtCom= 1.00D+00 WtEn= 0.00D+00
 Coeff-Com: -0.257D-04-0.274D-03-0.229D-03 0.355D-03 0.919D-02 0.285D-01
 Coeff-Com:  0.988D-01 0.385D+00 0.478D+00
 Coeff:     -0.257D-04-0.274D-03-0.229D-03 0.355D-03 0.919D-02 0.285D-01
 Coeff:      0.988D-01 0.385D+00 0.478D+00
 Gap=     0.211 Goal=   None    Shift=    0.000
 RMSDP=3.39D-05 MaxDP=2.80D-03 DE= 4.89D-06 OVMax= 1.89D-04

 Cycle  10  Pass 0  IDiag  1:
 RMSU=  6.28D-06    CP:  9.85D-01  6.47D-01  6.82D-01  8.50D-01  9.82D-01
                    CP:  1.66D+00  2.69D+00  2.98D+00  2.19D+00
 E= -1201.85339301355     Delta-E=        0.000005339624 Rises=F Damp=F
 DIIS: error= 4.44D-05 at cycle  10 NSaved=  10.
 NSaved=10 IEnMin= 8 EnMin= -1201.85340324449     IErMin= 9 ErrMin= 3.38D-05
 ErrMax= 4.44D-05  0.00D+00 EMaxC= 1.00D-01 BMatC= 9.09D-08 BMatP= 3.61D-07
 IDIUse=1 WtCom= 1.00D+00 WtEn= 0.00D+00
 Coeff-Com: -0.205D-04-0.222D-03-0.195D-03 0.236D-03 0.739D-02 0.229D-01
 Coeff-Com:  0.796D-01 0.316D+00 0.401D+00 0.173D+00
 Coeff:     -0.205D-04-0.222D-03-0.195D-03 0.236D-03 0.739D-02 0.229D-01
 Coeff:      0.796D-01 0.316D+00 0.401D+00 0.173D+00
 Gap=     0.211 Goal=   None    Shift=    0.000
 RMSDP=1.48D-05 MaxDP=1.25D-03 DE= 5.34D-06 OVMax= 9.91D-06

 Cycle  11  Pass 0  IDiag  1:
 RMSU=  6.09D-06    CP:  9.85D-01  6.48D-01  6.80D-01  8.55D-01  1.01D+00
                    CP:  1.78D+00  3.00D+00  3.00D+00  2.74D+00  1.53D+00
 E= -1201.85338943489     Delta-E=        0.000003578655 Rises=F Damp=F
 DIIS: error= 5.19D-05 at cycle  11 NSaved=  11.
 NSaved=11 IEnMin= 8 EnMin= -1201.85340324449     IErMin= 9 ErrMin= 3.38D-05
 ErrMax= 5.19D-05  0.00D+00 EMaxC= 1.00D-01 BMatC= 1.07D-07 BMatP= 9.09D-08
 IDIUse=1 WtCom= 1.00D+00 WtEn= 0.00D+00
 Coeff-Com:  0.904D-05-0.223D-03-0.430D-03-0.837D-03 0.458D-02 0.166D-01
 Coeff-Com:  0.688D-01 0.342D+00 0.527D+00 0.220D+01-0.216D+01
 Coeff:      0.904D-05-0.223D-03-0.430D-03-0.837D-03 0.458D-02 0.166D-01
 Coeff:      0.688D-01 0.342D+00 0.527D+00 0.220D+01-0.216D+01
 Gap=     0.211 Goal=   None    Shift=    0.000
 RMSDP=6.28D-05 MaxDP=5.70D-03 DE= 3.58D-06 OVMax= 3.63D-05

 Cycle  12  Pass 0  IDiag  1:
 RMSU=  1.30D-05    CP:  9.84D-01  6.48D-01  6.89D-01  8.40D-01  9.10D-01
                    CP:  1.29D+00  1.71D+00  1.91D+00  3.73D-01 -1.98D+00
                    CP: -3.01D-01
 E= -1201.85340097865     Delta-E=       -0.000011543760 Rises=F Damp=F
 DIIS: error= 2.58D-05 at cycle  12 NSaved=  12.
 NSaved=12 IEnMin= 8 EnMin= -1201.85340324449     IErMin=12 ErrMin= 2.58D-05
 ErrMax= 2.58D-05  0.00D+00 EMaxC= 1.00D-01 BMatC= 2.63D-08 BMatP= 9.09D-08
 IDIUse=1 WtCom= 1.00D+00 WtEn= 0.00D+00
 Coeff-Com:  0.111D-04-0.561D-04-0.225D-03-0.712D-03 0.278D-04 0.166D-02
 Coeff-Com:  0.125D-01 0.104D+00 0.207D+00 0.173D+01-0.192D+01 0.863D+00
 Coeff:      0.111D-04-0.561D-04-0.225D-03-0.712D-03 0.278D-04 0.166D-02
 Coeff:      0.125D-01 0.104D+00 0.207D+00 0.173D+01-0.192D+01 0.863D+00
 Gap=     0.211 Goal=   None    Shift=    0.000
 RMSDP=2.75D-05 MaxDP=2.09D-03 DE=-1.15D-05 OVMax= 2.03D-05

 Cycle  13  Pass 0  IDiag  1:
 RMSU=  1.04D-05    CP:  9.84D-01  6.48D-01  6.93D-01  8.38D-01  8.56D-01
                    CP:  1.06D+00  1.25D+00  1.51D+00 -2.20D-01 -3.00D+00
                    CP: -6.95D-01  1.87D+00
 E= -1201.85340302489     Delta-E=       -0.000002046238 Rises=F Damp=F
 DIIS: error= 7.34D-06 at cycle  13 NSaved=  13.
 NSaved=13 IEnMin= 8 EnMin= -1201.85340324449     IErMin=13 ErrMin= 7.34D-06
 ErrMax= 7.34D-06  0.00D+00 EMaxC= 1.00D-01 BMatC= 6.60D-09 BMatP= 2.63D-08
 IDIUse=1 WtCom= 1.00D+00 WtEn= 0.00D+00
 Coeff-Com:  0.267D-05-0.128D-04-0.810D-04-0.262D-03-0.151D-03 0.255D-03
 Coeff-Com:  0.312D-02 0.290D-01 0.587D-01 0.602D+00-0.717D+00 0.281D+00
 Coeff-Com:  0.744D+00
 Coeff:      0.267D-05-0.128D-04-0.810D-04-0.262D-03-0.151D-03 0.255D-03
 Coeff:      0.312D-02 0.290D-01 0.587D-01 0.602D+00-0.717D+00 0.281D+00
 Coeff:      0.744D+00
 Gap=     0.211 Goal=   None    Shift=    0.000
 RMSDP=1.06D-05 MaxDP=4.74D-04 DE=-2.05D-06 OVMax= 1.38D-05

 Cycle  14  Pass 0  IDiag  1:
 RMSU=  5.61D-06    CP:  9.84D-01  6.48D-01  6.94D-01  8.39D-01  8.38D-01
                    CP:  1.03D+00  1.20D+00  1.50D+00 -6.15D-02 -3.00D+00
                    CP: -8.36D-01  2.13D+00  1.73D+00
 E= -1201.85340491136     Delta-E=       -0.000001886472 Rises=F Damp=F
 DIIS: error= 5.86D-06 at cycle  14 NSaved=  14.
 NSaved=14 IEnMin=14 EnMin= -1201.85340491136     IErMin=14 ErrMin= 5.86D-06
 ErrMax= 5.86D-06  0.00D+00 EMaxC= 1.00D-01 BMatC= 4.25D-09 BMatP= 6.60D-09
 IDIUse=1 WtCom= 1.00D+00 WtEn= 0.00D+00
 Coeff-Com:  0.513D-06-0.109D-04-0.360D-04-0.969D-04 0.534D-04 0.474D-03
 Coeff-Com:  0.275D-02 0.160D-01 0.261D-01 0.179D+00-0.192D+00-0.569D-01
 Coeff-Com:  0.340D+00 0.685D+00
 Coeff:      0.513D-06-0.109D-04-0.360D-04-0.969D-04 0.534D-04 0.474D-03
 Coeff:      0.275D-02 0.160D-01 0.261D-01 0.179D+00-0.192D+00-0.569D-01
 Coeff:      0.340D+00 0.685D+00
 Gap=     0.211 Goal=   None    Shift=    0.000
 RMSDP=7.69D-06 MaxDP=3.00D-04 DE=-1.89D-06 OVMax= 1.03D-05

 Initial convergence to 1.0D-05 achieved.  Increase integral accuracy.
 Cycle  15  Pass 1  IDiag  1:
 E= -1201.85341843592     Delta-E=       -0.000013524560 Rises=F Damp=F
 DIIS: error= 2.94D-04 at cycle   1 NSaved=   1.
 NSaved= 1 IEnMin= 1 EnMin= -1201.85341843592     IErMin= 1 ErrMin= 2.94D-04
 ErrMax= 2.94D-04  0.00D+00 EMaxC= 1.00D-01 BMatC= 3.78D-05 BMatP= 3.78D-05
 IDIUse=3 WtCom= 9.97D-01 WtEn= 2.94D-03
 Coeff-Com:  0.100D+01
 Coeff-En:   0.100D+01
 Coeff:      0.100D+01
 Gap=     0.211 Goal=   None    Shift=    0.000
 RMSDP=7.69D-06 MaxDP=3.00D-04 DE=-1.35D-05 OVMax= 7.49D-04

 Cycle  16  Pass 1  IDiag  1:
 RMSU=  7.15D-04    CP:  9.84D-01
 E= -1201.85344184513     Delta-E=       -0.000023409207 Rises=F Damp=F
 DIIS: error= 3.28D-06 at cycle   2 NSaved=   2.
 NSaved= 2 IEnMin= 2 EnMin= -1201.85344184513     IErMin= 2 ErrMin= 3.28D-06
 ErrMax= 3.28D-06  0.00D+00 EMaxC= 1.00D-01 BMatC= 1.90D-08 BMatP= 3.78D-05
 IDIUse=1 WtCom= 1.00D+00 WtEn= 0.00D+00
 Coeff-Com: -0.701D-02 0.101D+01
 Coeff:     -0.701D-02 0.101D+01
 Gap=     0.211 Goal=   None    Shift=    0.000
 RMSDP=8.84D-06 MaxDP=4.40D-04 DE=-2.34D-05 OVMax= 4.05D-05

 Cycle  17  Pass 1  IDiag  1:
 RMSU=  4.33D-06    CP:  9.84D-01  1.01D+00
 E= -1201.85344184802     Delta-E=       -0.000000002891 Rises=F Damp=F
 DIIS: error= 3.43D-06 at cycle   3 NSaved=   3.
 NSaved= 3 IEnMin= 3 EnMin= -1201.85344184802     IErMin= 2 ErrMin= 3.28D-06
 ErrMax= 3.43D-06  0.00D+00 EMaxC= 1.00D-01 BMatC= 2.56D-08 BMatP= 1.90D-08
 IDIUse=1 WtCom= 1.00D+00 WtEn= 0.00D+00
 Coeff-Com: -0.421D-02 0.560D+00 0.444D+00
 Coeff:     -0.421D-02 0.560D+00 0.444D+00
 Gap=     0.211 Goal=   None    Shift=    0.000
 RMSDP=2.74D-07 MaxDP=2.46D-05 DE=-2.89D-09 OVMax= 2.55D-05

 Cycle  18  Pass 1  IDiag  1:
 RMSU=  2.70D-07    CP:  9.84D-01  1.01D+00  1.01D+00
 E= -1201.85344186583     Delta-E=       -0.000000017805 Rises=F Damp=F
 DIIS: error= 1.32D-06 at cycle   4 NSaved=   4.
 NSaved= 4 IEnMin= 4 EnMin= -1201.85344186583     IErMin= 4 ErrMin= 1.32D-06
 ErrMax= 1.32D-06  0.00D+00 EMaxC= 1.00D-01 BMatC= 2.21D-09 BMatP= 1.90D-08
 IDIUse=1 WtCom= 1.00D+00 WtEn= 0.00D+00
 Coeff-Com: -0.147D-02 0.187D+00 0.245D+00 0.570D+00
 Coeff:     -0.147D-02 0.187D+00 0.245D+00 0.570D+00
 Gap=     0.211 Goal=   None    Shift=    0.000
 RMSDP=1.02D-07 MaxDP=8.21D-06 DE=-1.78D-08 OVMax= 1.47D-05

 Cycle  19  Pass 1  IDiag  1:
 RMSU=  8.50D-08    CP:  9.84D-01  1.01D+00  1.02D+00  9.45D-01
 E= -1201.85344186710     Delta-E=       -0.000000001277 Rises=F Damp=F
 DIIS: error= 8.15D-07 at cycle   5 NSaved=   5.
 NSaved= 5 IEnMin= 5 EnMin= -1201.85344186710     IErMin= 5 ErrMin= 8.15D-07
 ErrMax= 8.15D-07  0.00D+00 EMaxC= 1.00D-01 BMatC= 4.78D-10 BMatP= 2.21D-09
 IDIUse=1 WtCom= 1.00D+00 WtEn= 0.00D+00
 Coeff-Com: -0.124D-03 0.105D-01 0.641D-01 0.355D+00 0.570D+00
 Coeff:     -0.124D-03 0.105D-01 0.641D-01 0.355D+00 0.570D+00
 Gap=     0.211 Goal=   None    Shift=    0.000
 RMSDP=4.26D-08 MaxDP=1.88D-06 DE=-1.28D-09 OVMax= 7.89D-06

 Cycle  20  Pass 1  IDiag  1:
 RMSU=  3.26D-08    CP:  9.84D-01  1.01D+00  1.02D+00  9.93D-01  8.96D-01
 E= -1201.85344186748     Delta-E=       -0.000000000374 Rises=F Damp=F
 DIIS: error= 2.52D-07 at cycle   6 NSaved=   6.
 NSaved= 6 IEnMin= 6 EnMin= -1201.85344186748     IErMin= 6 ErrMin= 2.52D-07
 ErrMax= 2.52D-07  0.00D+00 EMaxC= 1.00D-01 BMatC= 5.19D-11 BMatP= 4.78D-10
 IDIUse=1 WtCom= 1.00D+00 WtEn= 0.00D+00
 Coeff-Com:  0.457D-04-0.912D-02 0.192D-01 0.161D+00 0.341D+00 0.488D+00
 Coeff:      0.457D-04-0.912D-02 0.192D-01 0.161D+00 0.341D+00 0.488D+00
 Gap=     0.211 Goal=   None    Shift=    0.000
 RMSDP=1.19D-08 MaxDP=7.02D-07 DE=-3.74D-10 OVMax= 2.41D-06

 Cycle  21  Pass 1  IDiag  1:
 RMSU=  1.06D-08    CP:  9.84D-01  1.01D+00  1.02D+00  9.83D-01  9.14D-01
                    CP:  9.31D-01
 E= -1201.85344186754     Delta-E=       -0.000000000058 Rises=F Damp=F
 DIIS: error= 5.68D-08 at cycle   7 NSaved=   7.
 NSaved= 7 IEnMin= 7 EnMin= -1201.85344186754     IErMin= 7 ErrMin= 5.68D-08
 ErrMax= 5.68D-08  0.00D+00 EMaxC= 1.00D-01 BMatC= 3.50D-12 BMatP= 5.19D-11
 IDIUse=1 WtCom= 1.00D+00 WtEn= 0.00D+00
 Coeff-Com:  0.359D-04-0.610D-02 0.692D-02 0.666D-01 0.154D+00 0.278D+00
 Coeff-Com:  0.500D+00
 Coeff:      0.359D-04-0.610D-02 0.692D-02 0.666D-01 0.154D+00 0.278D+00
 Coeff:      0.500D+00
 Gap=     0.211 Goal=   None    Shift=    0.000
 RMSDP=3.18D-09 MaxDP=2.24D-07 DE=-5.82D-11 OVMax= 4.56D-07

 SCF Done:  E(RB3LYP) =  -1201.85344187     A.U. after   21 cycles
            NFock= 21  Conv=0.32D-08     -V/T= 2.0039
 KE= 1.197180563045D+03 PE=-5.893252944274D+03 EE= 1.957143837333D+03
 Leave Link  502 at Wed Sep 27 14:40:32 2017, MaxMem=  1879048192 cpu:      4479.3
 (Enter /net/software/local/gaussian09/E.01/g09/l801.exe)
 DoSCS=F DFT=T ScalE2(SS,OS)=  1.000000  1.000000
 ExpMin= 9.52D-02 ExpMax= 6.07D+04 ExpMxC= 2.07D+03 IAcc=3 IRadAn=         5 AccDes= 0.00D+00
 HarFok:  IExCor=  205 AccDes= 0.00D+00 IRadAn=         5 IDoV=-2 UseB2=F ITyADJ=14
 ICtDFT= 12500011 ScaDFX=  1.000000  1.000000  1.000000  1.000000
 Largest valence mixing into a core orbital is  9.24D-05
 Largest core mixing into a valence orbital is  2.14D-05
 Range of M.O.s used for correlation:    23   672
 NBasis=   672 NAE=    72 NBE=    72 NFC=    22 NFV=     0
 NROrb=    650 NOA=    50 NOB=    50 NVA=   600 NVB=   600

 **** Warning!!: The largest alpha MO coefficient is  0.67388865D+02

 Leave Link  801 at Wed Sep 27 14:40:32 2017, MaxMem=  1879048192 cpu:         2.5
 (Enter /net/software/local/gaussian09/E.01/g09/l914.exe)
 RHF ground state
 MDV=  1879048192 DFT=T DoStab=F Mixed=T DoRPA=T DoScal=F NonHer=T
 Would need an additional         81548000000 words for in-memory AO integral storage.
 Making orbital integer symmetry assigments:
 Orbital symmetries:
       Occupied  (A) (A) (A) (A) (A) (A) (A) (A) (A) (A) (A) (A)
                 (A) (A) (A) (A) (A) (A) (A) (A) (A) (A) (A) (A)
                 (A) (A) (A) (A) (A) (A) (A) (A) (A) (A) (A) (A)
                 (A) (A) (A) (A) (A) (A) (A) (A) (A) (A) (A) (A)
                 (A) (A) (A) (A) (A) (A) (A) (A) (A) (A) (A) (A)
                 (A) (A) (A) (A) (A) (A) (A) (A) (A) (A) (A) (A)
       Virtual   (A) (A) (A) (A) (A) (A) (A) (A) (A) (A) (A) (A)
                 (A) (A) (A) (A) (A) (A) (A) (A) (A) (A) (A) (A)
                 (A) (A) (A) (A) (A) (A) (A) (A) (A) (A) (A) (A)
                 (A) (A) (A) (A) (A) (A) (A) (A) (A) (A) (A) (A)
                 (A) (A) (A) (A) (A) (A) (A) (A) (A) (A) (A) (A)
                 (A) (A) (A) (A) (A) (A) (A) (A) (A) (A) (A) (A)
                 (A) (A) (A) (A) (A) (A) (A) (A) (A) (A) (A) (A)
                 (A) (A) (A) (A) (A) (A) (A) (A) (A) (A) (A) (A)
                 (A) (A) (A) (A) (A) (A) (A) (A) (A) (A) (A) (A)
                 (A) (A) (A) (A) (A) (A) (A) (A) (A) (A) (A) (A)
                 (A) (A) (A) (A) (A) (A) (A) (A) (A) (A) (A) (A)
                 (A) (A) (A) (A) (A) (A) (A) (A) (A) (A) (A) (A)
                 (A) (A) (A) (A) (A) (A) (A) (A) (A) (A) (A) (A)
                 (A) (A) (A) (A) (A) (A) (A) (A) (A) (A) (A) (A)
                 (A) (A) (A) (A) (A) (A) (A) (A) (A) (A) (A) (A)
                 (A) (A) (A) (A) (A) (A) (A) (A) (A) (A) (A) (A)
                 (A) (A) (A) (A) (A) (A) (A) (A) (A) (A) (A) (A)
                 (A) (A) (A) (A) (A) (A) (A) (A) (A) (A) (A) (A)
                 (A) (A) (A) (A) (A) (A) (A) (A) (A) (A) (A) (A)
                 (A) (A) (A) (A) (A) (A) (A) (A) (A) (A) (A) (A)
                 (A) (A) (A) (A) (A) (A) (A) (A) (A) (A) (A) (A)
                 (A) (A) (A) (A) (A) (A) (A) (A) (A) (A) (A) (A)
                 (A) (A) (A) (A) (A) (A) (A) (A) (A) (A) (A) (A)
                 (A) (A) (A) (A) (A) (A) (A) (A) (A) (A) (A) (A)
                 (A) (A) (A) (A) (A) (A) (A) (A) (A) (A) (A) (A)
                 (A) (A) (A) (A) (A) (A) (A) (A) (A) (A) (A) (A)
                 (A) (A) (A) (A) (A) (A) (A) (A) (A) (A) (A) (A)
                 (A) (A) (A) (A) (A) (A) (A) (A) (A) (A) (A) (A)
                 (A) (A) (A) (A) (A) (A) (A) (A) (A) (A) (A) (A)
                 (A) (A) (A) (A) (A) (A) (A) (A) (A) (A) (A) (A)
                 (A) (A) (A) (A) (A) (A) (A) (A) (A) (A) (A) (A)
                 (A) (A) (A) (A) (A) (A) (A) (A) (A) (A) (A) (A)
                 (A) (A) (A) (A) (A) (A) (A) (A) (A) (A) (A) (A)
                 (A) (A) (A) (A) (A) (A) (A) (A) (A) (A) (A) (A)
                 (A) (A) (A) (A) (A) (A) (A) (A) (A) (A) (A) (A)
                 (A) (A) (A) (A) (A) (A) (A) (A) (A) (A) (A) (A)
                 (A) (A) (A) (A) (A) (A) (A) (A) (A) (A) (A) (A)
                 (A) (A) (A) (A) (A) (A) (A) (A) (A) (A) (A) (A)
                 (A) (A) (A) (A) (A) (A) (A) (A) (A) (A) (A) (A)
                 (A) (A) (A) (A) (A) (A) (A) (A) (A) (A) (A) (A)
                 (A) (A) (A) (A) (A) (A) (A) (A) (A) (A) (A) (A)
                 (A) (A) (A) (A) (A) (A) (A) (A) (A) (A) (A) (A)
                 (A) (A) (A) (A) (A) (A) (A) (A) (A) (A) (A) (A)
                 (A) (A) (A) (A) (A) (A) (A) (A) (A) (A) (A) (A)
                 (A) (A) (A) (A) (A) (A) (A) (A) (A) (A) (A) (A)
                 (A) (A) (A) (A) (A) (A) (A) (A) (A) (A) (A) (A)
                 (A) (A) (A) (A) (A) (A) (A) (A) (A) (A) (A) (A)
                 (A) (A) (A) (A) (A) (A) (A) (A) (A) (A) (A) (A)
                 (A) (A) (A) (A) (A) (A) (A) (A) (A) (A) (A) (A)
                 (A) (A) (A) (A) (A) (A) (A) (A) (A) (A) (A) (A)
   320 initial guesses have been made.
 Convergence on wavefunction:    0.001000000000000
 Davidson Disk Diagonalization:  ConvIn= 1.00D-03 SkipCon=T Conv= 1.00D-03.
 Max sub-space:  1280 roots to seek:   320 dimension of matrix:        60000
 Iteration     1 Dimension   320 NMult     0 NNew    320
 CISAX will form   320 AO SS matrices at one time.
 NMat=   320 NSing=   320 JSym2X= 0.
 FoFJK:  IHMeth= 1 ICntrl=       0 DoSepK=F KAlg= 0 I1Cent=   0 FoldK=F
 IRaf=         0 NMat= 640 IRICut=     800 DoRegI=T DoRafI=T ISym2E= 0.
 FoFCou: FMM=F IPFlag=           0 FMFlag=      100000 FMFlg1=           0
         NFxFlg=           0 DoJE=F BraDBF=F KetDBF=F FulRan=T
         wScrn=  0.000000 ICntrl=       0 IOpCl=  0 I1Cent=           0 NGrid=           0
         NMat0=  640 NMatS0=    320 NMatT0=    0 NMatD0=  640 NMtDS0=    0 NMtDT0=    0
 Symmetry not used in FoFCou.
 New state      2 was old state      5
 New state      5 was old state      2
 New state      6 was old state      7
 New state      7 was old state      9
 New state      8 was old state     10
 New state      9 was old state     30
 New state     10 was old state     11
 New state     11 was old state     12
 New state     12 was old state     13
 New state     13 was old state     18
 New state     14 was old state     15
 New state     15 was old state     14
 New state     17 was old state     19
 New state     18 was old state     26
 New state     19 was old state     23
 New state     20 was old state     22
 New state     21 was old state     34
 New state     22 was old state     32
 New state     23 was old state     20
 New state     24 was old state     29
 New state     25 was old state     24
 New state     26 was old state     25
 New state     28 was old state     33
 New state     29 was old state     28
 New state     30 was old state     31
 New state     31 was old state     47
 New state     32 was old state     17
 New state     33 was old state     50
 New state     34 was old state     36
 New state     35 was old state     37
 New state     36 was old state     45
 New state     37 was old state     39
 New state     38 was old state     42
 New state     39 was old state     51
 New state     41 was old state     35
 New state     42 was old state     44
 New state     43 was old state     71
 New state     44 was old state     38
 New state     45 was old state      8
 New state     46 was old state     41
 New state     47 was old state     43
 New state     48 was old state     46
 New state     49 was old state     59
 New state     50 was old state     72
 New state     51 was old state     48
 New state     52 was old state     63
 New state     53 was old state     49
 New state     54 was old state     64
 New state     55 was old state     53
 New state     56 was old state     57
 New state     57 was old state     54
 New state     58 was old state     62
 New state     59 was old state     52
 New state     60 was old state     56
 New state     61 was old state     58
 New state     62 was old state     65
 New state     63 was old state     55
 New state     64 was old state     67
 New state     65 was old state     69
 New state     66 was old state     75
 New state     67 was old state     73
 New state     68 was old state     84
 New state     69 was old state     74
 New state     70 was old state     66
 New state     71 was old state     78
 New state     72 was old state     70
 New state     73 was old state     81
 New state     74 was old state     79
 New state     75 was old state     77
 New state     76 was old state     83
 New state     77 was old state     85
 New state     78 was old state     68
 New state     79 was old state     90
 Excitation Energies [eV] at current iteration:
 Root      1 :     5.141781843179943
 Root      2 :     5.235991690534251
 Root      3 :     5.410025427854165
 Root      4 :     5.620731900369123
 Root      5 :     5.892847534916361
 Root      6 :     5.973107089689686
 Root      7 :     6.410843906199375
 Root      8 :     6.573331334910439
 Root      9 :     6.657924403814525
 Root     10 :     6.667008004378338
 Root     11 :     6.798516990557228
 Root     12 :     6.883899501514986
 Root     13 :     6.983623192983331
 Root     14 :     7.012369499897399
 Root     15 :     7.085882284855315
 Root     16 :     7.120820874546514
 Root     17 :     7.221203532650913
 Root     18 :     7.259636516674917
 Root     19 :     7.286363142771629
 Root     20 :     7.303464570120606
 Root     21 :     7.333785769343711
 Root     22 :     7.384896455791124
 Root     23 :     7.435704995568599
 Root     24 :     7.484013713281990
 Root     25 :     7.529606292806807
 Root     26 :     7.566402445137081
 Root     27 :     7.571293963386974
 Root     28 :     7.586742722567132
 Root     29 :     7.597487473995427
 Root     30 :     7.619822489180564
 Root     31 :     7.672071465543572
 Root     32 :     7.743134082280655
 Root     33 :     7.748664009471917
 Root     34 :     7.774474636366854
 Root     35 :     7.824299663134554
 Root     36 :     7.832146075023985
 Root     37 :     7.886334104266798
 Root     38 :     7.911257220203233
 Root     39 :     7.930315198115700
 Root     40 :     7.954594112534085
 Root     41 :     7.995406700019034
 Root     42 :     8.022719397904002
 Root     43 :     8.044198198130086
 Root     44 :     8.052591622276640
 Root     45 :     8.105852671933350
 Root     46 :     8.118909735047870
 Root     47 :     8.148427279141146
 Root     48 :     8.207765767792456
 Root     49 :     8.263878053717416
 Root     50 :     8.276165294932312
 Root     51 :     8.293886366217398
 Root     52 :     8.307463786380294
 Root     53 :     8.328854038660856
 Root     54 :     8.341043954596753
 Root     55 :     8.392666745926494
 Root     56 :     8.406659401456350
 Root     57 :     8.418123432045133
 Root     58 :     8.462862543614339
 Root     59 :     8.481157536905748
 Root     60 :     8.503267967800214
 Root     61 :     8.605678195080605
 Root     62 :     8.607671027803011
 Root     63 :     8.626089001389724
 Root     64 :     8.631142859689467
 Root     65 :     8.652682441676429
 Root     66 :     8.655306959311380
 Root     67 :     8.669684515081700
 Root     68 :     8.698714577335364
 Root     69 :     8.708029530909835
 Root     70 :     8.731329813610872
 Root     71 :     8.752154773519786
 Root     72 :     8.761354796071897
 Root     73 :     8.783887127875579
 Root     74 :     8.790650951954344
 Root     75 :     8.819071696897245
 Root     76 :     8.836004032750235
 Root     77 :     8.858271053269814
 Root     78 :     8.866011235252623
 Root     79 :     8.877294170825934
 Root     80 :     8.888595137558962
 Root     81 :     8.908247100825694
 Root     82 :     8.916409916605048
 Root     83 :     8.953681704732412
 Root     84 :     8.964682494377044
 Root     85 :     8.996450989291342
 Root     86 :     9.040031412192665
 Root     87 :     9.060979717294424
 Root     88 :     9.078538205076962
 Root     89 :     9.081717998022137
 Root     90 :     9.107351448195024
 Root     91 :     9.119987438515553
 Root     92 :     9.121563591381593
 Root     93 :     9.166259589536299
 Root     94 :     9.175653982005699
 Root     95 :     9.188321776719295
 Root     96 :     9.215557989561256
 Root     97 :     9.226312898672504
 Root     98 :     9.256874818212452
 Root     99 :     9.268724198305867
 Root    100 :     9.300741571007158
 Root    101 :     9.314720876889680
 Root    102 :     9.356149713560930
 Root    103 :     9.368893416792126
 Root    104 :     9.385976486255785
 Root    105 :     9.399729908614560
 Root    106 :     9.408958475788561
 Root    107 :     9.432967449890167
 Root    108 :     9.437838243267585
 Root    109 :     9.438797670399403
 Root    110 :     9.459964610598011
 Root    111 :     9.470558938902176
 Root    112 :     9.480495865892800
 Root    113 :     9.486036701515820
 Root    114 :     9.496218640134190
 Root    115 :     9.504621527663739
 Root    116 :     9.519498014531626
 Root    117 :     9.544270708795036
 Root    118 :     9.576936807125405
 Root    119 :     9.582149382106714
 Root    120 :     9.587728772387548
 Root    121 :     9.598013440369975
 Root    122 :     9.619705598377067
 Root    123 :     9.630044413563464
 Root    124 :     9.631132160304160
 Root    125 :     9.647375793948308
 Root    126 :     9.655070248329277
 Root    127 :     9.677922701025434
 Root    128 :     9.709731956099127
 Root    129 :     9.723378038979883
 Root    130 :     9.729747001572052
 Root    131 :     9.739361983252936
 Root    132 :     9.749360518995228
 Root    133 :     9.770030982649573
 Root    134 :     9.785440760614442
 Root    135 :     9.799259349711422
 Root    136 :     9.808562128417110
 Root    137 :     9.824046081133167
 Root    138 :     9.826608753317798
 Root    139 :     9.836212354528751
 Root    140 :     9.841842019464929
 Root    141 :     9.855641132819846
 Root    142 :     9.865517330486387
 Root    143 :     9.876795288702922
 Root    144 :     9.888702092102269
 Root    145 :     9.894189153843785
 Root    146 :     9.901391562826163
 Root    147 :     9.907807083409780
 Root    148 :     9.917699381098680
 Root    149 :     9.920463427495580
 Root    150 :     9.930314891400474
 Root    151 :     9.936910004132708
 Root    152 :     9.945672628568042
 Root    153 :     9.956392018551595
 Root    154 :     9.962490216640983
 Root    155 :     9.967099456659344
 Root    156 :     9.972868606703374
 Root    157 :     9.973746427556476
 Root    158 :     9.999419577988961
 Root    159 :    10.004118202998710
 Root    160 :    10.011398009350780
 Root    161 :    10.014770560951250
 Root    162 :    10.028996467117970
 Root    163 :    10.040288095835630
 Root    164 :    10.052713148050000
 Root    165 :    10.058673731834200
 Root    166 :    10.069417055229390
 Root    167 :    10.078347491124930
 Root    168 :    10.097847362278730
 Root    169 :    10.115825890970870
 Root    170 :    10.127716299112540
 Root    171 :    10.131443196299330
 Root    172 :    10.144975165215270
 Root    173 :    10.148348633469140
 Root    174 :    10.169898375823530
 Root    175 :    10.184398507104270
 Root    176 :    10.198159611792490
 Root    177 :    10.208754865643640
 Root    178 :    10.215203463023840
 Root    179 :    10.224895924283160
 Root    180 :    10.232559166385050
 Root    181 :    10.239351124600980
 Root    182 :    10.246853376042090
 Root    183 :    10.255522561804810
 Root    184 :    10.263546506800230
 Root    185 :    10.264409423640230
 Root    186 :    10.284976236006570
 Root    187 :    10.290751702930700
 Root    188 :    10.303731855506440
 Root    189 :    10.308292371319110
 Root    190 :    10.312697188852550
 Root    191 :    10.329845025742800
 Root    192 :    10.335865686782420
 Root    193 :    10.344287782356380
 Root    194 :    10.349893710690680
 Root    195 :    10.354154795309370
 Root    196 :    10.362432193252650
 Root    197 :    10.371479119635950
 Root    198 :    10.376193382327490
 Root    199 :    10.386551217336300
 Root    200 :    10.402126804698900
 Root    201 :    10.408944402702620
 Root    202 :    10.426982144185510
 Root    203 :    10.432615163093000
 Root    204 :    10.442447480876140
 Root    205 :    10.445776108886680
 Root    206 :    10.456303792467690
 Root    207 :    10.478894608989480
 Root    208 :    10.490851288652740
 Root    209 :    10.500440974873420
 Root    210 :    10.506292577506750
 Root    211 :    10.512491273119280
 Root    212 :    10.528370867495500
 Root    213 :    10.529854936348780
 Root    214 :    10.538791796663060
 Root    215 :    10.544781841794710
 Root    216 :    10.570185294340770
 Root    217 :    10.588088306962380
 Root    218 :    10.596502191406370
 Root    219 :    10.605982325532160
 Root    220 :    10.608525381351750
 Root    221 :    10.617204396186620
 Root    222 :    10.621608601754370
 Root    223 :    10.623624893269040
 Root    224 :    10.628875581453610
 Root    225 :    10.636176953703110
 Root    226 :    10.649247820647520
 Root    227 :    10.655377678068920
 Root    228 :    10.666497579852730
 Root    229 :    10.670341867843480
 Root    230 :    10.686116021598780
 Root    231 :    10.696106619346970
 Root    232 :    10.699837129767040
 Root    233 :    10.710606800977790
 Root    234 :    10.716083756239970
 Root    235 :    10.722014119536170
 Root    236 :    10.726179118815960
 Root    237 :    10.731604706350850
 Root    238 :    10.739310331293750
 Root    239 :    10.753470149326690
 Root    240 :    10.759349346056390
 Root    241 :    10.768137417219430
 Root    242 :    10.781525666831310
 Root    243 :    10.783499921510590
 Root    244 :    10.793390283342460
 Root    245 :    10.800835306685180
 Root    246 :    10.811187376356100
 Root    247 :    10.821291003522660
 Root    248 :    10.828079701180570
 Root    249 :    10.834230507802700
 Root    250 :    10.852501880313710
 Root    251 :    10.853509876171100
 Root    252 :    10.860349879683080
 Root    253 :    10.863063306539030
 Root    254 :    10.874395964860850
 Root    255 :    10.887101824107370
 Root    256 :    10.888950521774070
 Root    257 :    10.903217753985610
 Root    258 :    10.907655348490750
 Root    259 :    10.927423115250550
 Root    260 :    10.937158265770530
 Root    261 :    10.946578893912910
 Root    262 :    10.952533586063870
 Root    263 :    10.961557819913560
 Root    264 :    10.962618451907460
 Root    265 :    10.971346691374920
 Root    266 :    10.977136608228180
 Root    267 :    10.988274177671150
 Root    268 :    10.998433547752000
 Root    269 :    11.003850194704940
 Root    270 :    11.013877037280080
 Root    271 :    11.018804966644210
 Root    272 :    11.031980642632950
 Root    273 :    11.049911021477650
 Root    274 :    11.059636535550080
 Root    275 :    11.069827621662780
 Root    276 :    11.079229877154400
 Root    277 :    11.091362844003840
 Root    278 :    11.097176191953920
 Root    279 :    11.103198259370850
 Root    280 :    11.105609665609990
 Root    281 :    11.117407698374550
 Root    282 :    11.135523667334980
 Root    283 :    11.144836284952850
 Root    284 :    11.156615652635830
 Root    285 :    11.161865405444330
 Root    286 :    11.169478181685670
 Root    287 :    11.189777548010110
 Root    288 :    11.207189246160310
 Root    289 :    11.213584543649570
 Root    290 :    11.224079849588310
 Root    291 :    11.225528607967800
 Root    292 :    11.250280950178240
 Root    293 :    11.261524125246000
 Root    294 :    11.266292826980400
 Root    295 :    11.274564182402170
 Root    296 :    11.280254273981450
 Root    297 :    11.293718330956500
 Root    298 :    11.299804496524280
 Root    299 :    11.307659593316620
 Root    300 :    11.309753740366490
 Root    301 :    11.317756280373860
 Root    302 :    11.326091250177180
 Root    303 :    11.339756171191070
 Root    304 :    11.345067048092520
 Root    305 :    11.359860619806770
 Root    306 :    11.363526044641310
 Root    307 :    11.380055850225290
 Root    308 :    11.400292355934470
 Root    309 :    11.408744226208900
 Root    310 :    11.422644678737300
 Root    311 :    11.436911688756090
 Root    312 :    11.460061826539130
 Root    313 :    11.476513940028990
 Root    314 :    11.507834078360150
 Root    315 :    11.525544886830910
 Root    316 :    11.573392916756370
 Root    317 :    11.957210539170020
 Root    318 :    12.006540992093520
 Root    319 :    12.247461559621830
 Root    320 :    12.571163924654680
 Iteration     2 Dimension   480 NMult   320 NNew    160
 CISAX will form   160 AO SS matrices at one time.
 NMat=   160 NSing=   160 JSym2X= 0.
 Root      1 not converged, maximum delta is    0.156068994890940
 Root      2 not converged, maximum delta is    0.200114673783747
 Root      3 not converged, maximum delta is    0.222342735090929
 New state      4 was old state      5
 Root      4 not converged, maximum delta is    0.301013808163183
 New state      5 was old state      4
 Root      5 not converged, maximum delta is    0.220396781689207
 Root      6 not converged, maximum delta is    0.065287941002921
 Root      7 not converged, maximum delta is    0.152274584700678
 Root      8 not converged, maximum delta is    0.335787488124500
 Root      9 not converged, maximum delta is    0.263462411451117
 Root     10 not converged, maximum delta is    0.357141177941978
 Root     11 not converged, maximum delta is    0.312801100073382
 New state     12 was old state     13
 Root     12 not converged, maximum delta is    0.423450075973938
 New state     13 was old state     12
 Root     13 not converged, maximum delta is    0.225304596581351
 Root     14 not converged, maximum delta is    0.560800333291555
 New state     15 was old state     19
 Root     15 not converged, maximum delta is    0.618210497332357
 New state     16 was old state     15
 Root     16 not converged, maximum delta is    0.298124142437877
 New state     17 was old state     16
 Root     17 not converged, maximum delta is    0.307922611700706
 New state     18 was old state     17
 Root     18 not converged, maximum delta is    0.386090360298734
 New state     19 was old state     18
 Root     19 not converged, maximum delta is    0.350824291986542
 New state     20 was old state     23
 Root     20 not converged, maximum delta is    0.359567868479020
 New state     21 was old state     20
 Root     21 not converged, maximum delta is    0.331104815643608
 New state     22 was old state     21
 Root     22 not converged, maximum delta is    0.458099760921996
 New state     23 was old state     22
 Root     23 not converged, maximum delta is    0.272004704121614
 New state     24 was old state     32
 Root     24 not converged, maximum delta is    0.459953805277262
 New state     25 was old state     24
 Root     25 not converged, maximum delta is    0.276433828701171
 New state     26 was old state     25
 Root     26 not converged, maximum delta is    0.103248612836964
 New state     27 was old state     26
 Root     27 not converged, maximum delta is    0.309198764416865
 New state     28 was old state     27
 Root     28 not converged, maximum delta is    0.314184966442795
 New state     29 was old state     28
 Root     29 not converged, maximum delta is    0.127219116797086
 New state     30 was old state     29
 Root     30 not converged, maximum delta is    0.121576189709608
 New state     31 was old state     33
 Root     31 not converged, maximum delta is    0.400368121996900
 New state     32 was old state     30
 Root     32 not converged, maximum delta is    0.221936391055312
 New state     33 was old state     31
 Root     33 not converged, maximum delta is    0.269736376272947
 New state     34 was old state     37
 Root     34 not converged, maximum delta is    0.401488644672745
 New state     35 was old state     34
 Root     35 not converged, maximum delta is    0.495511022554542
 New state     36 was old state     35
 Root     36 not converged, maximum delta is    0.313061233784345
 New state     37 was old state     36
 Root     37 not converged, maximum delta is    0.248237139902657
 New state     38 was old state     39
 Root     38 not converged, maximum delta is    0.175478482558112
 New state     39 was old state     38
 Root     39 not converged, maximum delta is    0.218809304787230
 Root     40 not converged, maximum delta is    0.402453120379056
 Root     41 not converged, maximum delta is    0.299487026468594
 New state     42 was old state     45
 Root     42 not converged, maximum delta is    0.228362425954676
 New state     43 was old state     42
 Root     43 not converged, maximum delta is    0.377178376469704
 New state     44 was old state     43
 Root     44 not converged, maximum delta is    0.320610910646518
 New state     45 was old state     44
 Root     45 not converged, maximum delta is    0.167315236578135
 Root     46 not converged, maximum delta is    0.233018323331256
 Root     47 not converged, maximum delta is    0.057356758790628
 Root     48 not converged, maximum delta is    0.169888417402955
 Root     49 not converged, maximum delta is    0.144703570293678
 Root     50 not converged, maximum delta is    0.179560833996193
 Root     51 not converged, maximum delta is    0.135983627142181
 Root     52 not converged, maximum delta is    0.265174212897594
 Root     53 not converged, maximum delta is    0.336291601356278
 Root     54 not converged, maximum delta is    0.292327384594662
 Root     55 not converged, maximum delta is    0.171263111662668
 Root     56 not converged, maximum delta is    0.333918000025598
 Root     57 not converged, maximum delta is    0.315817554564216
 Root     58 not converged, maximum delta is    0.279154958774770
 New state     59 was old state     60
 Root     59 not converged, maximum delta is    0.243778719937291
 New state     60 was old state     59
 Root     60 not converged, maximum delta is    0.113130953331946
 New state     61 was old state     66
 Root     61 not converged, maximum delta is    0.322185248759264
 New state     62 was old state     71
 Root     62 not converged, maximum delta is    0.322634737554614
 New state     63 was old state     62
 Root     63 not converged, maximum delta is    0.314373410545086
 Root     64 not converged, maximum delta is    0.421463190809460
 New state     65 was old state     61
 Root     65 not converged, maximum delta is    0.171339568689389
 New state     66 was old state     65
 Root     66 not converged, maximum delta is    0.510688560436696
 New state     67 was old state     63
 Root     67 not converged, maximum delta is    0.304262647562586
 New state     68 was old state     67
 Root     68 not converged, maximum delta is    0.444208615903154
 New state     69 was old state     68
 Root     69 not converged, maximum delta is    0.358238859245444
 New state     70 was old state     69
 Root     70 not converged, maximum delta is    0.444487009720576
 New state     71 was old state     70
 Root     71 not converged, maximum delta is    0.287984277082631
 Root     72 not converged, maximum delta is    0.302398439238828
 New state     73 was old state     75
 Root     73 not converged, maximum delta is    0.302942920278405
 New state     74 was old state     73
 Root     74 not converged, maximum delta is    0.204996306478746
 New state     75 was old state     74
 Root     75 not converged, maximum delta is    0.222239467203278
 Root     76 not converged, maximum delta is    0.230286723179971
 Root     77 not converged, maximum delta is    0.336030373322838
 New state     78 was old state     79
 Root     78 not converged, maximum delta is    0.258743546004302
 New state     79 was old state     78
 Root     79 not converged, maximum delta is    0.205759693987782
 New state     80 was old state     81
 Root     80 not converged, maximum delta is    0.361250664932356
 Excitation Energies [eV] at current iteration:
 Root      1 :     5.099763882613074   Change is   -0.042017960566870
 Root      2 :     5.178231312647002   Change is   -0.057760377887250
 Root      3 :     5.333066419347495   Change is   -0.076959008506669
 Root      4 :     5.544446962034501   Change is   -0.348400572881860
 Root      5 :     5.625820517999562   Change is    0.005088617630440
 Root      6 :     5.956774573621647   Change is   -0.016332516068038
 Root      7 :     6.202972560674982   Change is   -0.207871345524393
 Root      8 :     6.346453881907845   Change is   -0.226877453002594
 Root      9 :     6.521675827249486   Change is   -0.136248576565040
 Root     10 :     6.619699929989543   Change is   -0.047308074388795
 Root     11 :     6.697442821376973   Change is   -0.101074169180256
 Root     12 :     6.711630675407914   Change is   -0.271992517575417
 Root     13 :     6.832318265966623   Change is   -0.051581235548362
 Root     14 :     6.879775864136156   Change is   -0.132593635761242
 Root     15 :     7.005118734941477   Change is   -0.281244407830151
 Root     16 :     7.056509726330824   Change is   -0.029372558524491
 Root     17 :     7.098635218995858   Change is   -0.022185655550657
 Root     18 :     7.140243255492202   Change is   -0.080960277158711
 Root     19 :     7.202970767816526   Change is   -0.056665748858391
 Root     20 :     7.245651905720157   Change is   -0.190053089848443
 Root     21 :     7.272220707293780   Change is   -0.031243862826826
 Root     22 :     7.286622153767234   Change is   -0.047163615576477
 Root     23 :     7.294076865094238   Change is   -0.090819590696885
 Root     24 :     7.344775619854373   Change is   -0.398358462426281
 Root     25 :     7.456814599083070   Change is   -0.027199114198920
 Root     26 :     7.531498817882098   Change is    0.001892525075291
 Root     27 :     7.550815661639042   Change is   -0.015586783498039
 Root     28 :     7.561299528607092   Change is   -0.009994434779882
 Root     29 :     7.580592564612052   Change is   -0.006150157955079
 Root     30 :     7.587337693273639   Change is   -0.010149780721788
 Root     31 :     7.597533581905579   Change is   -0.151130427566338
 Root     32 :     7.625435142724473   Change is    0.005612653543909
 Root     33 :     7.648536498605875   Change is   -0.023534966937696
 Root     34 :     7.714280197744301   Change is   -0.172053906522498
 Root     35 :     7.743598665440246   Change is   -0.030875970926608
 Root     36 :     7.751868815803058   Change is   -0.072430847331497
 Root     37 :     7.818594836149219   Change is   -0.013551238874766
 Root     38 :     7.858266612110180   Change is   -0.072048586005520
 Root     39 :     7.877705713774388   Change is   -0.033551506428846
 Root     40 :     7.914467846759758   Change is   -0.040126265774328
 Root     41 :     7.956083538459776   Change is   -0.039323161559258
 Root     42 :     8.009051830491188   Change is   -0.096800841442161
 Root     43 :     8.009860185999399   Change is   -0.012859211904603
 Root     44 :     8.015636964032744   Change is   -0.028561234097342
 Root     45 :     8.038331731439492   Change is   -0.014259890837148
 Root     46 :     8.066609443941946   Change is   -0.052300291105925
 Root     47 :     8.140582073069510   Change is   -0.007845206071636
 Root     48 :     8.158650643147675   Change is   -0.049115124644781
 Root     49 :     8.233219275042394   Change is   -0.030658778675021
 Root     50 :     8.243820565952953   Change is   -0.032344728979359
 Root     51 :     8.263799983170365   Change is   -0.030086383047032
 Root     52 :     8.281370339227632   Change is   -0.026093447152664
 Root     53 :     8.289847992749715   Change is   -0.039006045911140
 Root     54 :     8.311660182942676   Change is   -0.029383771654076
 Root     55 :     8.339547155443311   Change is   -0.053119590483183
 Root     56 :     8.366679877448389   Change is   -0.039979524007962
 Root     57 :     8.379438766376856   Change is   -0.038684665668278
 Root     58 :     8.409274582203548   Change is   -0.053587961410790
 Root     59 :     8.446693628358567   Change is   -0.056574339441647
 Root     60 :     8.463764413340744   Change is   -0.017393123565003
 Root     61 :     8.513696448321358   Change is   -0.141610510990022
 Root     62 :     8.577083185873938   Change is   -0.175071587645848
 Root     63 :     8.586616821336719   Change is   -0.021054206466292
 Root     64 :     8.601214885139294   Change is   -0.029927974550173
 Root     65 :     8.602518844505139   Change is   -0.003159350575464
 Root     66 :     8.619475318901758   Change is   -0.033207122774670
 Root     67 :     8.628201804363878   Change is    0.002112802974152
 Root     68 :     8.637226238383846   Change is   -0.032458276697855
 Root     69 :     8.643547766342580   Change is   -0.055166810992784
 Root     70 :     8.655607352409053   Change is   -0.052422178500782
 Root     71 :     8.701809794696587   Change is   -0.029520018914285
 Root     72 :     8.720236460357976   Change is   -0.041118335713921
 Root     73 :     8.741145068082819   Change is   -0.077926628814426
 Root     74 :     8.747955159711580   Change is   -0.035931968164000
 Root     75 :     8.776094781964353   Change is   -0.014556169989991
 Root     76 :     8.794859183223631   Change is   -0.041144849526605
 Root     77 :     8.802636030396846   Change is   -0.055635022872967
 Root     78 :     8.816056788656267   Change is   -0.061237382169667
 Root     79 :     8.825364827479733   Change is   -0.040646407772890
 Root     80 :     8.844947030457003   Change is   -0.063300070368689
 Iteration     3 Dimension   640 NMult   480 NNew    160
 CISAX will form   160 AO SS matrices at one time.
 NMat=   160 NSing=   160 JSym2X= 0.
 Root      1 not converged, maximum delta is    0.001674041365236
 Root      2 not converged, maximum delta is    0.001939717900749
 Root      3 not converged, maximum delta is    0.009608439626207
 Root      4 not converged, maximum delta is    0.014042361951562
 Root      5 not converged, maximum delta is    0.009329904808197
[...]
    24  H   -0.000219   0.009267  -0.050676   0.431381  -0.054524   0.008404
    25  H   -0.000325   0.008870  -0.002043   0.009201  -0.045184   0.427248
    26  H   -0.008620  -0.051522   0.012363  -0.002701   0.009682  -0.049840
    27  H    0.000000   0.000008   0.000037  -0.000412   0.000666  -0.000376
    28  H   -0.000000   0.000000  -0.000000   0.000002   0.000037  -0.000025
    29  H   -0.000000  -0.000001   0.000000   0.000007   0.000084  -0.000057
    30  H   -0.000000  -0.000000   0.000000  -0.000000   0.000002   0.000009
    31  H   -0.000000   0.000007  -0.000002   0.000010  -0.000031  -0.000229
    32  H   -0.000013  -0.000115   0.000071  -0.000079  -0.000305  -0.000581
    33  H   -0.000000  -0.000001  -0.000001   0.000003   0.000016  -0.000029
    34  H   -0.000004   0.000002   0.000001  -0.000000   0.000008   0.000077
    35  H   -0.000001   0.000004  -0.000000   0.000001  -0.000007   0.000040
    36  H    0.000000  -0.000001   0.000000  -0.000000   0.000001  -0.000001
               7          8          9         10         11         12
     1  C   -0.065313  -0.000005  -0.000005  -0.000001  -0.000003   0.000003
     2  C    0.468828  -0.000471   0.000280  -0.000044  -0.000093   0.000020
     3  C   -0.034502   0.005424  -0.000277   0.003061  -0.000435  -0.000036
     4  C   -0.045557  -0.021410   0.009706   0.020706   0.006394   0.000143
     5  C    0.009183   0.304928  -0.074981  -0.102207  -0.095701   0.009053
     6  C    0.396908  -0.024742   0.010054   0.007104   0.020241  -0.005683
     7  C    5.047234   0.003190  -0.001067  -0.000505   0.002495   0.000140
     8  S    0.003190  13.420525   0.302976   0.629325   0.553908  -0.004828
     9  N   -0.001067   0.302976   6.713082  -0.050912  -0.052899   0.331520
    10  O   -0.000505   0.629325  -0.050912   7.965323  -0.044742  -0.001311
    11  O    0.002495   0.553908  -0.052899  -0.044742   8.075498  -0.006274
    12  C    0.000140  -0.004828   0.331520  -0.001311  -0.006274   4.369998
    13  N   -0.000716   0.006557  -0.101473  -0.000548  -0.014756   0.371158
    14  C    0.000060   0.000992   0.000362  -0.000003   0.002774  -0.048271
    15  C   -0.000006   0.000021  -0.000258   0.000002   0.000006   0.004384
    16  O    0.000025   0.000310  -0.100293  -0.000196  -0.000209   0.701678
    17  H    0.000001  -0.014841   0.336089   0.001523   0.002905  -0.022162
    18  C    0.000487  -0.000117   0.000008  -0.000001  -0.000028   0.003095
    19  C   -0.000305   0.000003   0.000004   0.000000   0.000003   0.000324
    20  H    0.003231   0.000001  -0.000000   0.000000   0.000000  -0.000000
    21  H   -0.004351  -0.000002   0.000000  -0.000000  -0.000000   0.000000
    22  H   -0.004494   0.000001   0.000000   0.000000   0.000000  -0.000000
    23  H    0.010469  -0.000166   0.000020  -0.000034   0.000005  -0.000004
    24  H   -0.001641  -0.000807  -0.000017   0.013062   0.000599  -0.000095
    25  H   -0.056032  -0.003974   0.000740   0.000445   0.014485  -0.000576
    26  H    0.428553  -0.000106   0.000012   0.000005  -0.000034   0.000007
    27  H   -0.000031  -0.004226  -0.002139   0.000210   0.017948  -0.022016
    28  H   -0.000003   0.000031   0.000190  -0.000000   0.000008   0.004441
    29  H   -0.000004  -0.000086   0.001892   0.000002  -0.000054  -0.010051
    30  H   -0.000001   0.000002   0.000016   0.000000   0.000002  -0.000430
    31  H   -0.000024   0.000047  -0.000071  -0.000000  -0.000005  -0.000969
    32  H    0.000466  -0.000083   0.000103   0.000001  -0.000057  -0.003685
    33  H   -0.000005   0.000002  -0.000002   0.000000  -0.000000   0.000457
    34  H   -0.000062   0.000000  -0.000000  -0.000000  -0.000001   0.000004
    35  H    0.000007   0.000000  -0.000000   0.000000  -0.000000   0.000008
    36  H    0.000015  -0.000000  -0.000000  -0.000000  -0.000000  -0.000034
              13         14         15         16         17         18
     1  C   -0.000002   0.000000   0.000000   0.000000   0.000000  -0.000002
     2  C    0.000043  -0.000001   0.000012   0.000003   0.000031  -0.000109
     3  C   -0.000091   0.000003   0.000005  -0.000029  -0.000091   0.000007
     4  C    0.000312  -0.000064  -0.000019   0.000024  -0.000510  -0.000041
     5  C   -0.003136   0.000051  -0.000274  -0.000316   0.001361   0.000402
     6  C    0.003996  -0.000529  -0.000022  -0.000187   0.000358   0.000297
     7  C   -0.000716   0.000060  -0.000006   0.000025   0.000001   0.000487
     8  S    0.006557   0.000992   0.000021   0.000310  -0.014841  -0.000117
     9  N   -0.101473   0.000362  -0.000258  -0.100293   0.336089   0.000008
    10  O   -0.000548  -0.000003   0.000002  -0.000196   0.001523  -0.000001
    11  O   -0.014756   0.002774   0.000006  -0.000209   0.002905  -0.000028
    12  C    0.371158  -0.048271   0.004384   0.701678  -0.022162   0.003095
    13  N    6.689497   0.241268  -0.071497  -0.109518   0.008176   0.006193
    14  C    0.241268   4.905169   0.311953  -0.019376  -0.000133  -0.056646
    15  C   -0.071497   0.311953   5.061387  -0.000846   0.000048   0.295604
    16  O   -0.109518  -0.019376  -0.000846   7.866055   0.008767   0.002477
    17  H    0.008176  -0.000133   0.000048   0.008767   0.434100  -0.000027
    18  C    0.006193  -0.056646   0.295604   0.002477  -0.000027   5.000151
    19  C   -0.001762   0.012759  -0.046814   0.000131   0.000000   0.288392
    20  H   -0.000000   0.000000  -0.000000   0.000000   0.000000   0.000000
    21  H    0.000000   0.000000   0.000000  -0.000000  -0.000000  -0.000000
    22  H    0.000000  -0.000000   0.000000  -0.000000  -0.000000  -0.000001
    23  H    0.000000  -0.000000   0.000000  -0.000000  -0.000010   0.000000
    24  H    0.000012  -0.000002  -0.000000   0.000005   0.000442  -0.000000
    25  H    0.005169  -0.000465  -0.000088  -0.000052  -0.000089  -0.000370
    26  H   -0.000030   0.000002   0.000001   0.000000   0.000000  -0.000024
    27  H    0.351297  -0.023376  -0.000009   0.003874  -0.000381  -0.000825
    28  H   -0.036759   0.425133  -0.067484   0.000899   0.000018   0.011581
    29  H   -0.037811   0.416662  -0.035617   0.022960  -0.000144  -0.005231
    30  H    0.008165  -0.043158   0.399037   0.000022  -0.000001  -0.029608
    31  H   -0.000116  -0.032759   0.399305  -0.000052  -0.000001  -0.045731
    32  H    0.007394  -0.009073  -0.043255  -0.001035  -0.000009   0.420490
    33  H   -0.000301  -0.000602  -0.043374   0.000452  -0.000001   0.411984
    34  H    0.000092  -0.000257  -0.006601  -0.000003   0.000000  -0.038869
    35  H    0.000099  -0.000869   0.011967  -0.000003  -0.000000  -0.048712
    36  H   -0.000015  -0.000022  -0.007235  -0.000000  -0.000000  -0.038997
              19         20         21         22         23         24
     1  C   -0.000004   0.418836   0.390519   0.428974  -0.005120  -0.000219
     2  C    0.000013  -0.049601  -0.026354  -0.061785  -0.060063   0.009267
     3  C   -0.000001  -0.003751  -0.002551   0.007346   0.439732  -0.050676
     4  C   -0.000001   0.000408  -0.000297  -0.000330  -0.055394   0.431381
     5  C   -0.000026   0.000161   0.000305  -0.000103   0.012368  -0.054524
     6  C    0.000275  -0.000814  -0.000986   0.002280  -0.002111   0.008404
     7  C   -0.000305   0.003231  -0.004351  -0.004494   0.010469  -0.001641
     8  S    0.000003   0.000001  -0.000002   0.000001  -0.000166  -0.000807
     9  N    0.000004  -0.000000   0.000000   0.000000   0.000020  -0.000017
    10  O    0.000000   0.000000  -0.000000   0.000000  -0.000034   0.013062
    11  O    0.000003   0.000000  -0.000000   0.000000   0.000005   0.000599
    12  C    0.000324  -0.000000   0.000000  -0.000000  -0.000004  -0.000095
    13  N   -0.001762  -0.000000   0.000000   0.000000   0.000000   0.000012
    14  C    0.012759   0.000000   0.000000  -0.000000  -0.000000  -0.000002
    15  C   -0.046814  -0.000000   0.000000   0.000000   0.000000  -0.000000
    16  O    0.000131   0.000000  -0.000000  -0.000000  -0.000000   0.000005
    17  H    0.000000   0.000000  -0.000000  -0.000000  -0.000010   0.000442
    18  C    0.288392   0.000000  -0.000000  -0.000001   0.000000  -0.000000
    19  C    4.936065  -0.000000   0.000000   0.000003  -0.000000  -0.000000
    20  H   -0.000000   0.559497  -0.030958  -0.024352   0.001166  -0.000017
    21  H    0.000000  -0.030958   0.566751  -0.024010   0.000469   0.000000
    22  H    0.000003  -0.024352  -0.024010   0.553158   0.000046   0.000012
    23  H   -0.000000   0.001166   0.000469   0.000046   0.549966  -0.007052
    24  H   -0.000000  -0.000017   0.000000   0.000012  -0.007052   0.509857
    25  H   -0.000071   0.000012   0.000011  -0.000027   0.000071  -0.000183
    26  H    0.000090   0.000030   0.000260   0.003132  -0.000228   0.000061
    27  H    0.000045  -0.000000   0.000000  -0.000000  -0.000000  -0.000018
    28  H   -0.000758  -0.000000   0.000000   0.000000  -0.000000   0.000000
    29  H   -0.000007   0.000000   0.000000  -0.000000  -0.000000   0.000000
    30  H   -0.005358   0.000000   0.000000   0.000000   0.000000  -0.000000
    31  H   -0.006059   0.000000   0.000000   0.000000   0.000000   0.000000
    32  H   -0.040929   0.000000   0.000000  -0.000001   0.000000  -0.000002
    33  H   -0.041362   0.000000  -0.000000   0.000000   0.000000   0.000000
    34  H    0.404139  -0.000000   0.000000   0.000001  -0.000000   0.000000
    35  H    0.417471  -0.000000   0.000000   0.000002  -0.000000   0.000000
    36  H    0.407448  -0.000000   0.000000  -0.000000   0.000000  -0.000000
              25         26         27         28         29         30
     1  C   -0.000325  -0.008620   0.000000  -0.000000  -0.000000  -0.000000
     2  C    0.008870  -0.051522   0.000008   0.000000  -0.000001  -0.000000
     3  C   -0.002043   0.012363   0.000037  -0.000000   0.000000   0.000000
     4  C    0.009201  -0.002701  -0.000412   0.000002   0.000007  -0.000000
     5  C   -0.045184   0.009682   0.000666   0.000037   0.000084   0.000002
     6  C    0.427248  -0.049840  -0.000376  -0.000025  -0.000057   0.000009
     7  C   -0.056032   0.428553  -0.000031  -0.000003  -0.000004  -0.000001
     8  S   -0.003974  -0.000106  -0.004226   0.000031  -0.000086   0.000002
     9  N    0.000740   0.000012  -0.002139   0.000190   0.001892   0.000016
    10  O    0.000445   0.000005   0.000210  -0.000000   0.000002   0.000000
    11  O    0.014485  -0.000034   0.017948   0.000008  -0.000054   0.000002
    12  C   -0.000576   0.000007  -0.022016   0.004441  -0.010051  -0.000430
    13  N    0.005169  -0.000030   0.351297  -0.036759  -0.037811   0.008165
    14  C   -0.000465   0.000002  -0.023376   0.425133   0.416662  -0.043158
    15  C   -0.000088   0.000001  -0.000009  -0.067484  -0.035617   0.399037
    16  O   -0.000052   0.000000   0.003874   0.000899   0.022960   0.000022
    17  H   -0.000089   0.000000  -0.000381   0.000018  -0.000144  -0.000001
    18  C   -0.000370  -0.000024  -0.000825   0.011581  -0.005231  -0.029608
    19  C   -0.000071   0.000090   0.000045  -0.000758  -0.000007  -0.005358
    20  H    0.000012   0.000030  -0.000000  -0.000000   0.000000   0.000000
    21  H    0.000011   0.000260   0.000000   0.000000   0.000000   0.000000
    22  H   -0.000027   0.003132  -0.000000   0.000000  -0.000000   0.000000
    23  H    0.000071  -0.000228  -0.000000  -0.000000  -0.000000   0.000000
    24  H   -0.000183   0.000061  -0.000018   0.000000   0.000000  -0.000000
    25  H    0.513961  -0.006591  -0.000375   0.000053   0.000012   0.000013
    26  H   -0.006591   0.550501  -0.000004  -0.000000   0.000000  -0.000000
    27  H   -0.000375  -0.000004   0.432838  -0.006380   0.005326   0.000004
    28  H    0.000053  -0.000000  -0.006380   0.579278  -0.021906  -0.001985
    29  H    0.000012   0.000000   0.005326  -0.021906   0.518486  -0.001131
    30  H    0.000013  -0.000000   0.000004  -0.001985  -0.001131   0.609580
    31  H    0.000854  -0.000006   0.002135  -0.002596   0.005958  -0.030733
    32  H   -0.000293  -0.000012   0.000496  -0.000282   0.000786   0.008144
    33  H    0.000028   0.000003   0.000020   0.000089   0.003290  -0.006570
    34  H    0.000039   0.000177  -0.000013   0.000026  -0.000013  -0.000063
    35  H    0.000009  -0.000002   0.000000   0.000019   0.000021  -0.000061
    36  H   -0.000003  -0.000001   0.000004  -0.000019   0.000040   0.004750
              31         32         33         34         35         36
     1  C   -0.000000  -0.000013  -0.000000  -0.000004  -0.000001   0.000000
     2  C    0.000007  -0.000115  -0.000001   0.000002   0.000004  -0.000001
     3  C   -0.000002   0.000071  -0.000001   0.000001  -0.000000   0.000000
     4  C    0.000010  -0.000079   0.000003  -0.000000   0.000001  -0.000000
     5  C   -0.000031  -0.000305   0.000016   0.000008  -0.000007   0.000001
     6  C   -0.000229  -0.000581  -0.000029   0.000077   0.000040  -0.000001
     7  C   -0.000024   0.000466  -0.000005  -0.000062   0.000007   0.000015
     8  S    0.000047  -0.000083   0.000002   0.000000   0.000000  -0.000000
     9  N   -0.000071   0.000103  -0.000002  -0.000000  -0.000000  -0.000000
    10  O   -0.000000   0.000001   0.000000  -0.000000   0.000000  -0.000000
    11  O   -0.000005  -0.000057  -0.000000  -0.000001  -0.000000  -0.000000
    12  C   -0.000969  -0.003685   0.000457   0.000004   0.000008  -0.000034
    13  N   -0.000116   0.007394  -0.000301   0.000092   0.000099  -0.000015
    14  C   -0.032759  -0.009073  -0.000602  -0.000257  -0.000869  -0.000022
    15  C    0.399305  -0.043255  -0.043374  -0.006601   0.011967  -0.007235
    16  O   -0.000052  -0.001035   0.000452  -0.000003  -0.000003  -0.000000
    17  H   -0.000001  -0.000009  -0.000001   0.000000  -0.000000  -0.000000
    18  C   -0.045731   0.420490   0.411984  -0.038869  -0.048712  -0.038997
    19  C   -0.006059  -0.040929  -0.041362   0.404139   0.417471   0.407448
    20  H    0.000000   0.000000   0.000000  -0.000000  -0.000000  -0.000000
    21  H    0.000000   0.000000  -0.000000   0.000000   0.000000   0.000000
    22  H    0.000000  -0.000001   0.000000   0.000001   0.000002  -0.000000
    23  H    0.000000   0.000000   0.000000  -0.000000  -0.000000   0.000000
    24  H    0.000000  -0.000002   0.000000   0.000000   0.000000  -0.000000
    25  H    0.000854  -0.000293   0.000028   0.000039   0.000009  -0.000003
    26  H   -0.000006  -0.000012   0.000003   0.000177  -0.000002  -0.000001
    27  H    0.002135   0.000496   0.000020  -0.000013   0.000000   0.000004
    28  H   -0.002596  -0.000282   0.000089   0.000026   0.000019  -0.000019
    29  H    0.005958   0.000786   0.003290  -0.000013   0.000021   0.000040
    30  H   -0.030733   0.008144  -0.006570  -0.000063  -0.000061   0.004750
    31  H    0.625004  -0.004202   0.008897   0.005124  -0.000141   0.000102
    32  H   -0.004202   0.595718  -0.030854  -0.006660  -0.004381   0.008665
    33  H    0.008897  -0.030854   0.606216   0.008333  -0.004711  -0.005630
    34  H    0.005124  -0.006660   0.008333   0.597615  -0.027580  -0.031552
    35  H   -0.000141  -0.004381  -0.004711  -0.027580   0.569683  -0.026198
    36  H    0.000102   0.008665  -0.005630  -0.031552  -0.026198   0.585742
 Mulliken charges:
               1
     1  C   -0.359213
     2  C    0.164984
     3  C   -0.163849
     4  C   -0.154875
     5  C    0.016328
     6  C   -0.145782
     7  C   -0.156675
     8  S    0.847623
     9  N   -0.322659
    10  O   -0.440264
    11  O   -0.481978
    12  C    0.329991
    13  N   -0.320898
    14  C   -0.081580
    15  C   -0.160336
    16  O   -0.375566
    17  H    0.244580
    18  C   -0.175831
    19  C   -0.323708
    20  H    0.126151
    21  H    0.131191
    22  H    0.120149
    23  H    0.115870
    24  H    0.142151
    25  H    0.135524
    26  H    0.114841
    27  H    0.245672
    28  H    0.116393
    29  H    0.136588
    30  H    0.089353
    31  H    0.076285
    32  H    0.103571
    33  H    0.093651
    34  H    0.096041
    35  H    0.113336
    36  H    0.102942
 Sum of Mulliken charges =  -0.00000
 Mulliken charges with hydrogens summed into heavy atoms:
               1
     1  C    0.018279
     2  C    0.164984
     3  C   -0.047979
     4  C   -0.012724
     5  C    0.016328
     6  C   -0.010257
     7  C   -0.041835
     8  S    0.847623
     9  N   -0.078080
    10  O   -0.440264
    11  O   -0.481978
    12  C    0.329991
    13  N   -0.075226
    14  C    0.171401
    15  C    0.005302
    16  O   -0.375566
    18  C    0.021392
    19  C   -0.011390
 Electronic spatial extent (au):  <R**2>=           5704.5933
 Charge=             -0.0000 electrons
 Dipole moment (field-independent basis, Debye):
    X=             -1.6810    Y=              4.6574    Z=             -0.3961  Tot=              4.9673
 Quadrupole moment (field-independent basis, Debye-Ang):
   XX=           -103.8735   YY=           -121.0520   ZZ=           -122.0113
   XY=             -5.7051   XZ=            -11.5738   YZ=             -4.1953
 Traceless Quadrupole moment (field-independent basis, Debye-Ang):
   XX=             11.7721   YY=             -5.4064   ZZ=             -6.3657
   XY=             -5.7051   XZ=            -11.5738   YZ=             -4.1953
 Octapole moment (field-independent basis, Debye-Ang**2):
  XXX=             -5.4807  YYY=             12.1735  ZZZ=             -8.1880  XYY=             -0.2174
  XXY=             23.5244  XXZ=             -1.3364  XZZ=            -17.4257  YZZ=             -0.9464
  YYZ=             12.9968  XYZ=             13.8105
 Hexadecapole moment (field-independent basis, Debye-Ang**3):
 XXXX=          -4007.0757 YYYY=          -2918.3877 ZZZZ=           -680.7548 XXXY=            -55.2070
 XXXZ=            -92.5111 YYYX=           -109.5347 YYYZ=            -30.9774 ZZZX=            -41.0756
 ZZZY=              2.8693 XXYY=          -1159.1747 XXZZ=           -836.4628 YYZZ=           -570.2178
 XXYZ=             33.7112 YYXZ=             -8.4371 ZZXY=             21.7613
 N-N= 1.537075102028D+03 E-N=-5.893252946106D+03  KE= 1.197180563045D+03
 Leave Link  601 at Wed Sep 27 17:00:11 2017, MaxMem=  1879048192 cpu:         3.5
 (Enter /net/software/local/gaussian09/E.01/g09/l9999.exe)
 1\1\GINC-P1968\SP\RB3LYP TD-FC\def2TZVP\C12H18N2O3S1\PLGJAWICZUK\27-Se
 p-2017\0\\#P td=(singlets,nstates=80) B3LYP/Def2TZVP\\conflex\\0,1\C,0
 ,-3.980944,2.955392,0.362712\C,0,-3.131743,1.731077,0.155165\C,0,-3.40
 6029,0.548974,0.850157\C,0,-2.647508,-0.593004,0.652237\C,0,-1.587167,
 -0.561453,-0.251196\C,0,-1.298412,0.598826,-0.959545\C,0,-2.070989,1.7
 34085,-0.750357\S,0,-0.60339,-2.020768,-0.488378\N,0,0.516553,-2.03889
 ,0.739637\O,0,-1.43545,-3.162354,-0.24307\O,0,0.127475,-1.864471,-1.72
 0284\C,0,1.719616,-1.300155,0.932555\N,0,2.272259,-0.775836,-0.181298\
 C,0,3.5525,-0.079698,-0.163621\C,0,3.454674,1.381873,-0.604393\O,0,2.1
 63318,-1.216036,2.060651\H,0,0.166847,-2.421809,1.607721\C,0,2.675146,
 2.27753,0.357594\C,0,2.582734,3.725602,-0.119808\H,0,-4.189195,3.11784
 8,1.421581\H,0,-4.944222,2.849697,-0.143999\H,0,-3.496323,3.848539,-0.
 031067\H,0,-4.230755,0.52128,1.552357\H,0,-2.883432,-1.507619,1.17897\
 H,0,-0.489556,0.607925,-1.6759\H,0,-1.84581,2.636398,-1.305818\H,0,1.8
 67198,-1.040178,-1.068083\H,0,4.247106,-0.615797,-0.816366\H,0,3.93762
 1,-0.148157,0.852874\H,0,4.475091,1.76449,-0.714411\H,0,3.004575,1.428
 966,-1.60285\H,0,1.668667,1.873411,0.496435\H,0,3.152306,2.244701,1.34
 1867\H,0,2.07819,3.792805,-1.087345\H,0,2.025499,4.341976,0.588216\H,0
 ,3.574733,4.169472,-0.235892\\Version=ES64L-G09RevE.01\State=1-A\HF=-1
 201.8534419\RMSD=3.183e-09\PG=C01 [X(C12H18N2O3S1)]\\@


 Age does not diminish the extreme disappointment of
 having a scoop of ice cream fall from the cone.
 -- Jim Fiebig
 Job cpu time:       0 days 18 hours 54 minutes 44.3 seconds.
 File lengths (MBytes):  RWF=   5542 Int=      0 D2E=      0 Chk=   1011 Scr=      1
 Normal termination of Gaussian 09 at Wed Sep 27 17:00:14 2017.
