 Entering Gaussian System, Link 0=g09.bin
 Initial command:
 /net/software/local/gaussian09/E.01/g09/l1.exe "/net/scratch/people/plgjawiczuk/slurm_jobdir/7288963/Gau-22720.inp" -scrdir="/net/scratch/people/plgjawiczuk/slurm_jobdir/7288963/"
 Entering Link 1 = /net/software/local/gaussian09/E.01/g09/l1.exe PID=     22728.
  
 Copyright (c) 1988,1990,1992,1993,1995,1998,2003,2009,2015,
            Gaussian, Inc.  All Rights Reserved.
  
 This is part of the Gaussian(R) 09 program.  It is based on
 the Gaussian(R) 03 system (copyright 2003, Gaussian, Inc.),
 the Gaussian(R) 98 system (copyright 1998, Gaussian, Inc.),
 the Gaussian(R) 94 system (copyright 1995, Gaussian, Inc.),
 the Gaussian 92(TM) system (copyright 1992, Gaussian, Inc.),
 the Gaussian 90(TM) system (copyright 1990, Gaussian, Inc.),
 the Gaussian 88(TM) system (copyright 1988, Gaussian, Inc.),
 the Gaussian 86(TM) system (copyright 1986, Carnegie Mellon
 University), and the Gaussian 82(TM) system (copyright 1983,
 Carnegie Mellon University). Gaussian is a federally registered
 trademark of Gaussian, Inc.
  
 This software contains proprietary and confidential information,
 including trade secrets, belonging to Gaussian, Inc.
  
 This software is provided under written license and may be
 used, copied, transmitted, or stored only in accord with that
 written license.
  
 The following legend is applicable only to US Government
 contracts under FAR:
  
                    RESTRICTED RIGHTS LEGEND
  
 Use, reproduction and disclosure by the US Government is
 subject to restrictions as set forth in subparagraphs (a)
 and (c) of the Commercial Computer Software - Restricted
 Rights clause in FAR 52.227-19.
  
 Gaussian, Inc.
 340 Quinnipiac St., Bldg. 40, Wallingford CT 06492
  
  
 ---------------------------------------------------------------
 Warning -- This program may not be used in any manner that
 competes with the business of Gaussian, Inc. or will provide
 assistance to any competitor of Gaussian, Inc.  The licensee
 of this program is prohibited from giving any competitor of
 Gaussian, Inc. access to this program.  By using this program,
 the user acknowledges that Gaussian, Inc. is engaged in the
 business of creating and licensing software in the field of
 computational chemistry and represents and warrants to the
 licensee that it is not a competitor of Gaussian, Inc. and that
 it will not use this program in any manner prohibited above.
 ---------------------------------------------------------------
  

 Cite this work as:
 Gaussian 09, Revision E.01,
 M. J. Frisch, G. W. Trucks, H. B. Schlegel, G. E. Scuseria, 
 M. A. Robb, J. R. Cheeseman, G. Scalmani, V. Barone, B. Mennucci, 
 G. A. Petersson, H. Nakatsuji, M. Caricato, X. Li, H. P. Hratchian, 
 A. F. Izmaylov, J. Bloino, G. Zheng, J. L. Sonnenberg, M. Hada, 
 M. Ehara, K. Toyota, R. Fukuda, J. Hasegawa, M. Ishida, T. Nakajima, 
 Y. Honda, O. Kitao, H. Nakai, T. Vreven, J. A. Montgomery, Jr., 
 J. E. Peralta, F. Ogliaro, M. Bearpark, J. J. Heyd, E. Brothers, 
 K. N. Kudin, V. N. Staroverov, T. Keith, R. Kobayashi, J. Normand, 
 K. Raghavachari, A. Rendell, J. C. Burant, S. S. Iyengar, J. Tomasi, 
 M. Cossi, N. Rega, J. M. Millam, M. Klene, J. E. Knox, J. B. Cross, 
 V. Bakken, C. Adamo, J. Jaramillo, R. Gomperts, R. E. Stratmann, 
 O. Yazyev, A. J. Austin, R. Cammi, C. Pomelli, J. W. Ochterski, 
 R. L. Martin, K. Morokuma, V. G. Zakrzewski, G. A. Voth, 
 P. Salvador, J. J. Dannenberg, S. Dapprich, A. D. Daniels, 
 O. Farkas, J. B. Foresman, J. V. Ortiz, J. Cioslowski, 
 and D. J. Fox, Gaussian, Inc., Wallingford CT, 2013.
 
 ******************************************
 Gaussian 09:  ES64L-G09RevE.01 30-Nov-2015
                21-Sep-2017 
 ******************************************
 %mem=11264MB
 %rwf=.//23937.rwf,500GB
 %NProcShared=8
 Will use up to    8 processors via shared memory.
 %chk=Tolbutamid_c2.chk
 -----------------------------
 # opt freq=vcd B3LYP/Def2TZVP
 -----------------------------
 1/14=-1,18=20,19=15,26=3,38=1/1,3;
 2/9=110,12=2,17=6,18=5,40=1/2;
 3/5=44,7=101,11=2,16=1,25=1,30=1,71=1,74=-5/1,2,3;
 4//1;
 5/5=2,38=5/2;
 6/7=2,8=2,9=2,10=2,28=1/1;
 7//1,2,3,16;
 1/14=-1,18=20,19=15,26=3/3(2);
 2/9=110/2;
 99//99;
 2/9=110/2;
 3/5=44,7=101,11=2,16=1,25=1,30=1,71=1,74=-5/1,2,3;
 4/5=5,16=3,69=1/1;
 5/5=2,38=5/2;
 7//1,2,3,16;
 1/14=-1,18=20,19=15,26=3/3(-5);
 2/9=110/2;
 6/7=2,8=2,9=2,10=2,19=2,28=1/1;
 99/9=1/99;
 -------
 conflex
 -------
 Symbolic Z-matrix:
 Charge =  0 Multiplicity = 1
 C                    -4.4151   -1.1257    0.2305 
 C                    -2.9272   -1.2557    0.0815 
 C                    -2.2979   -0.8448   -1.1015 
 C                    -0.9106   -0.9258   -1.2306 
 C                    -0.1487   -1.4064   -0.1633 
 C                    -0.7615   -1.824     1.0209 
 C                    -2.149    -1.738     1.1429 
 S                     1.6204   -1.4877   -0.2964 
 N                     2.1084   -0.3601    0.8119 
 O                     2.0368   -2.7829    0.1923 
 O                     1.9945   -1.0054   -1.6105 
 C                     1.8559    1.0032    0.7985 
 N                     1.6025    1.5645   -0.4141 
 C                     1.2435    2.9545   -0.5855 
 C                    -0.2527    3.1296   -0.8447 
 O                     1.891     1.6205    1.8511 
 H                     2.3655   -0.7487    1.7135 
 C                    -1.1121    2.8052    0.3794 
 C                    -2.5894    3.0294    0.0965 
 H                    -4.9172   -1.2658   -0.7325 
 H                    -4.6657   -0.1342    0.6202 
 H                    -4.8077   -1.885     0.9148 
 H                    -2.8881   -0.4574   -1.9299 
 H                    -0.4411   -0.6081   -2.1583 
 H                    -0.1716   -2.2116    1.848 
 H                    -2.6227   -2.0516    2.0713 
 H                     1.7449    0.9849   -1.248 
 H                     1.8069    3.3163   -1.4522 
 H                     1.557     3.5391    0.2859 
 H                    -0.4338    4.1695   -1.1427 
 H                    -0.5585    2.496    -1.6865 
 H                    -0.9673    1.7632    0.6825 
 H                    -0.8079    3.434     1.2242 
 H                    -2.9313    2.3988   -0.7303 
 H                    -3.186     2.783     0.9803 
 H                    -2.7845    4.0743   -0.1649 
 

 GradGradGradGradGradGradGradGradGradGradGradGradGradGradGradGradGradGrad
 Berny optimization.
 Initialization pass.
                           ----------------------------
                           !    Initial Parameters    !
                           ! (Angstroms and Degrees)  !
 --------------------------                            --------------------------
 ! Name  Definition              Value          Derivative Info.                !
 --------------------------------------------------------------------------------
 ! R1    R(1,2)                  1.501          estimate D2E/DX2                !
 ! R2    R(1,20)                 1.095          estimate D2E/DX2                !
 ! R3    R(1,21)                 1.0944         estimate D2E/DX2                !
 ! R4    R(1,22)                 1.095          estimate D2E/DX2                !
 ! R5    R(2,3)                  1.4016         estimate D2E/DX2                !
 ! R6    R(2,7)                  1.4017         estimate D2E/DX2                !
 ! R7    R(3,4)                  1.3956         estimate D2E/DX2                !
 ! R8    R(3,23)                 1.0884         estimate D2E/DX2                !
 ! R9    R(4,5)                  1.3966         estimate D2E/DX2                !
 ! R10   R(4,24)                 1.0872         estimate D2E/DX2                !
 ! R11   R(5,6)                  1.3972         estimate D2E/DX2                !
 ! R12   R(5,8)                  1.776          estimate D2E/DX2                !
 ! R13   R(6,7)                  1.3955         estimate D2E/DX2                !
 ! R14   R(6,25)                 1.0873         estimate D2E/DX2                !
 ! R15   R(7,26)                 1.0884         estimate D2E/DX2                !
 ! R16   R(8,9)                  1.6547         estimate D2E/DX2                !
 ! R17   R(8,10)                 1.4456         estimate D2E/DX2                !
 ! R18   R(8,11)                 1.4489         estimate D2E/DX2                !
 ! R19   R(9,12)                 1.3866         estimate D2E/DX2                !
 ! R20   R(9,17)                 1.0149         estimate D2E/DX2                !
 ! R21   R(12,13)                1.36           estimate D2E/DX2                !
 ! R22   R(12,16)                1.2208         estimate D2E/DX2                !
 ! R23   R(13,14)                1.4458         estimate D2E/DX2                !
 ! R24   R(13,27)                1.0255         estimate D2E/DX2                !
 ! R25   R(14,15)                1.5285         estimate D2E/DX2                !
 ! R26   R(14,28)                1.0952         estimate D2E/DX2                !
 ! R27   R(14,29)                1.0952         estimate D2E/DX2                !
 ! R28   R(15,18)                1.5304         estimate D2E/DX2                !
 ! R29   R(15,30)                1.0968         estimate D2E/DX2                !
 ! R30   R(15,31)                1.0971         estimate D2E/DX2                !
 ! R31   R(18,19)                1.5208         estimate D2E/DX2                !
 ! R32   R(18,32)                1.0948         estimate D2E/DX2                !
 ! R33   R(18,33)                1.0962         estimate D2E/DX2                !
 ! R34   R(19,34)                1.0946         estimate D2E/DX2                !
 ! R35   R(19,35)                1.0944         estimate D2E/DX2                !
 ! R36   R(19,36)                1.0946         estimate D2E/DX2                !
 ! A1    A(2,1,20)             110.8638         estimate D2E/DX2                !
 ! A2    A(2,1,21)             109.9255         estimate D2E/DX2                !
 ! A3    A(2,1,22)             110.9409         estimate D2E/DX2                !
 ! A4    A(20,1,21)            108.9088         estimate D2E/DX2                !
 ! A5    A(20,1,22)            107.246          estimate D2E/DX2                !
 ! A6    A(21,1,22)            108.8811         estimate D2E/DX2                !
 ! A7    A(1,2,3)              120.2309         estimate D2E/DX2                !
 ! A8    A(1,2,7)              120.3297         estimate D2E/DX2                !
 ! A9    A(3,2,7)              119.3893         estimate D2E/DX2                !
 ! A10   A(2,3,4)              120.4894         estimate D2E/DX2                !
 ! A11   A(2,3,23)             120.2183         estimate D2E/DX2                !
 ! A12   A(4,3,23)             119.2922         estimate D2E/DX2                !
 ! A13   A(3,4,5)              119.4421         estimate D2E/DX2                !
 ! A14   A(3,4,24)             119.4218         estimate D2E/DX2                !
 ! A15   A(5,4,24)             121.1351         estimate D2E/DX2                !
 ! A16   A(4,5,6)              120.7485         estimate D2E/DX2                !
 ! A17   A(4,5,8)              120.1256         estimate D2E/DX2                !
 ! A18   A(6,5,8)              119.1256         estimate D2E/DX2                !
 ! A19   A(5,6,7)              119.4552         estimate D2E/DX2                !
 ! A20   A(5,6,25)             120.8833         estimate D2E/DX2                !
 ! A21   A(7,6,25)             119.6613         estimate D2E/DX2                !
 ! A22   A(2,7,6)              120.4643         estimate D2E/DX2                !
 ! A23   A(2,7,26)             120.2256         estimate D2E/DX2                !
 ! A24   A(6,7,26)             119.31           estimate D2E/DX2                !
 ! A25   A(5,8,9)              102.2623         estimate D2E/DX2                !
 ! A26   A(5,8,10)             107.6146         estimate D2E/DX2                !
 ! A27   A(5,8,11)             108.0547         estimate D2E/DX2                !
 ! A28   A(9,8,10)             107.4083         estimate D2E/DX2                !
 ! A29   A(9,8,11)             107.7273         estimate D2E/DX2                !
 ! A30   A(10,8,11)            122.0367         estimate D2E/DX2                !
 ! A31   A(8,9,12)             127.579          estimate D2E/DX2                !
 ! A32   A(8,9,17)             114.1303         estimate D2E/DX2                !
 ! A33   A(12,9,17)            115.5436         estimate D2E/DX2                !
 ! A34   A(9,12,13)            116.6372         estimate D2E/DX2                !
 ! A35   A(9,12,16)            118.9221         estimate D2E/DX2                !
 ! A36   A(13,12,16)           124.4331         estimate D2E/DX2                !
 ! A37   A(12,13,14)           123.281          estimate D2E/DX2                !
 ! A38   A(12,13,27)           117.7682         estimate D2E/DX2                !
 ! A39   A(14,13,27)           118.7809         estimate D2E/DX2                !
 ! A40   A(13,14,15)           111.9183         estimate D2E/DX2                !
 ! A41   A(13,14,28)           106.4798         estimate D2E/DX2                !
 ! A42   A(13,14,29)           110.3523         estimate D2E/DX2                !
 ! A43   A(15,14,28)           109.3599         estimate D2E/DX2                !
 ! A44   A(15,14,29)           110.7309         estimate D2E/DX2                !
 ! A45   A(28,14,29)           107.8224         estimate D2E/DX2                !
 ! A46   A(14,15,18)           112.9386         estimate D2E/DX2                !
 ! A47   A(14,15,30)           108.4395         estimate D2E/DX2                !
 ! A48   A(14,15,31)           109.6818         estimate D2E/DX2                !
 ! A49   A(18,15,30)           108.9997         estimate D2E/DX2                !
 ! A50   A(18,15,31)           109.5593         estimate D2E/DX2                !
 ! A51   A(30,15,31)           107.0416         estimate D2E/DX2                !
 ! A52   A(15,18,19)           111.4355         estimate D2E/DX2                !
 ! A53   A(15,18,32)           110.4207         estimate D2E/DX2                !
 ! A54   A(15,18,33)           109.8156         estimate D2E/DX2                !
 ! A55   A(19,18,32)           108.6809         estimate D2E/DX2                !
 ! A56   A(19,18,33)           109.1702         estimate D2E/DX2                !
 ! A57   A(32,18,33)           107.2111         estimate D2E/DX2                !
 ! A58   A(18,19,34)           111.0391         estimate D2E/DX2                !
 ! A59   A(18,19,35)           110.2511         estimate D2E/DX2                !
 ! A60   A(18,19,36)           110.9954         estimate D2E/DX2                !
 ! A61   A(34,19,35)           108.0595         estimate D2E/DX2                !
 ! A62   A(34,19,36)           108.2932         estimate D2E/DX2                !
 ! A63   A(35,19,36)           108.0954         estimate D2E/DX2                !
 ! D1    D(20,1,2,3)            32.8541         estimate D2E/DX2                !
 ! D2    D(20,1,2,7)          -149.7356         estimate D2E/DX2                !
 ! D3    D(21,1,2,3)           -87.6134         estimate D2E/DX2                !
 ! D4    D(21,1,2,7)            89.797          estimate D2E/DX2                !
 ! D5    D(22,1,2,3)           151.904          estimate D2E/DX2                !
 ! D6    D(22,1,2,7)           -30.6856         estimate D2E/DX2                !
 ! D7    D(1,2,3,4)            178.0648         estimate D2E/DX2                !
 ! D8    D(1,2,3,23)            -1.8627         estimate D2E/DX2                !
 ! D9    D(7,2,3,4)              0.6301         estimate D2E/DX2                !
 ! D10   D(7,2,3,23)          -179.2974         estimate D2E/DX2                !
 ! D11   D(1,2,7,6)           -178.1592         estimate D2E/DX2                !
 ! D12   D(1,2,7,26)             1.97           estimate D2E/DX2                !
 ! D13   D(3,2,7,6)             -0.7272         estimate D2E/DX2                !
 ! D14   D(3,2,7,26)           179.4021         estimate D2E/DX2                !
 ! D15   D(2,3,4,5)             -0.7415         estimate D2E/DX2                !
 ! D16   D(2,3,4,24)           179.6184         estimate D2E/DX2                !
 ! D17   D(23,3,4,5)           179.1867         estimate D2E/DX2                !
 ! D18   D(23,3,4,24)           -0.4534         estimate D2E/DX2                !
 ! D19   D(3,4,5,6)              0.9539         estimate D2E/DX2                !
 ! D20   D(3,4,5,8)           -178.8177         estimate D2E/DX2                !
 ! D21   D(24,4,5,6)          -179.4124         estimate D2E/DX2                !
 ! D22   D(24,4,5,8)             0.8161         estimate D2E/DX2                !
 ! D23   D(4,5,6,7)             -1.0499         estimate D2E/DX2                !
 ! D24   D(4,5,6,25)           179.1338         estimate D2E/DX2                !
 ! D25   D(8,5,6,7)            178.7239         estimate D2E/DX2                !
 ! D26   D(8,5,6,25)            -1.0925         estimate D2E/DX2                !
 ! D27   D(4,5,8,9)            113.1033         estimate D2E/DX2                !
 ! D28   D(4,5,8,10)          -133.9277         estimate D2E/DX2                !
 ! D29   D(4,5,8,11)            -0.3863         estimate D2E/DX2                !
 ! D30   D(6,5,8,9)            -66.672          estimate D2E/DX2                !
 ! D31   D(6,5,8,10)            46.2971         estimate D2E/DX2                !
 ! D32   D(6,5,8,11)           179.8384         estimate D2E/DX2                !
 ! D33   D(5,6,7,2)              0.9339         estimate D2E/DX2                !
 ! D34   D(5,6,7,26)          -179.1942         estimate D2E/DX2                !
 ! D35   D(25,6,7,2)          -179.2474         estimate D2E/DX2                !
 ! D36   D(25,6,7,26)            0.6244         estimate D2E/DX2                !
 ! D37   D(5,8,9,12)           -62.6982         estimate D2E/DX2                !
 ! D38   D(5,8,9,17)            97.5045         estimate D2E/DX2                !
 ! D39   D(10,8,9,12)         -175.8202         estimate D2E/DX2                !
 ! D40   D(10,8,9,17)          -15.6175         estimate D2E/DX2                !
 ! D41   D(11,8,9,12)           51.0332         estimate D2E/DX2                !
 ! D42   D(11,8,9,17)         -148.7641         estimate D2E/DX2                !
 ! D43   D(8,9,12,13)          -24.5582         estimate D2E/DX2                !
 ! D44   D(8,9,12,16)          156.4033         estimate D2E/DX2                !
 ! D45   D(17,9,12,13)         175.4762         estimate D2E/DX2                !
 ! D46   D(17,9,12,16)          -3.5624         estimate D2E/DX2                !
 ! D47   D(9,12,13,14)         176.2011         estimate D2E/DX2                !
 ! D48   D(9,12,13,27)          -8.6008         estimate D2E/DX2                !
 ! D49   D(16,12,13,14)         -4.8193         estimate D2E/DX2                !
 ! D50   D(16,12,13,27)        170.3788         estimate D2E/DX2                !
 ! D51   D(12,13,14,15)       -103.1171         estimate D2E/DX2                !
 ! D52   D(12,13,14,28)        137.4324         estimate D2E/DX2                !
 ! D53   D(12,13,14,29)         20.6778         estimate D2E/DX2                !
 ! D54   D(27,13,14,15)         81.7307         estimate D2E/DX2                !
 ! D55   D(27,13,14,28)        -37.7197         estimate D2E/DX2                !
 ! D56   D(27,13,14,29)       -154.4743         estimate D2E/DX2                !
 ! D57   D(13,14,15,18)         69.1089         estimate D2E/DX2                !
 ! D58   D(13,14,15,30)       -169.9767         estimate D2E/DX2                !
 ! D59   D(13,14,15,31)        -53.4024         estimate D2E/DX2                !
 ! D60   D(28,14,15,18)       -173.1494         estimate D2E/DX2                !
 ! D61   D(28,14,15,30)        -52.2349         estimate D2E/DX2                !
 ! D62   D(28,14,15,31)         64.3393         estimate D2E/DX2                !
 ! D63   D(29,14,15,18)        -54.4733         estimate D2E/DX2                !
 ! D64   D(29,14,15,30)         66.4412         estimate D2E/DX2                !
 ! D65   D(29,14,15,31)       -176.9845         estimate D2E/DX2                !
 ! D66   D(14,15,18,19)        178.3416         estimate D2E/DX2                !
 ! D67   D(14,15,18,32)        -60.7714         estimate D2E/DX2                !
 ! D68   D(14,15,18,33)         57.2473         estimate D2E/DX2                !
 ! D69   D(30,15,18,19)         57.7462         estimate D2E/DX2                !
 ! D70   D(30,15,18,32)        178.6331         estimate D2E/DX2                !
 ! D71   D(30,15,18,33)        -63.3482         estimate D2E/DX2                !
 ! D72   D(31,15,18,19)        -59.0787         estimate D2E/DX2                !
 ! D73   D(31,15,18,32)         61.8083         estimate D2E/DX2                !
 ! D74   D(31,15,18,33)        179.827          estimate D2E/DX2                !
 ! D75   D(15,18,19,34)         59.7367         estimate D2E/DX2                !
 ! D76   D(15,18,19,35)        179.4686         estimate D2E/DX2                !
 ! D77   D(15,18,19,36)        -60.7827         estimate D2E/DX2                !
 ! D78   D(32,18,19,34)        -62.1627         estimate D2E/DX2                !
 ! D79   D(32,18,19,35)         57.5692         estimate D2E/DX2                !
 ! D80   D(32,18,19,36)        177.3179         estimate D2E/DX2                !
 ! D81   D(33,18,19,34)       -178.793          estimate D2E/DX2                !
 ! D82   D(33,18,19,35)        -59.061          estimate D2E/DX2                !
 ! D83   D(33,18,19,36)         60.6876         estimate D2E/DX2                !
 --------------------------------------------------------------------------------
 Trust Radius=3.00D-01 FncErr=1.00D-07 GrdErr=1.00D-06
 Number of steps in this run=    192 maximum allowed number of steps=    216.
 GradGradGradGradGradGradGradGradGradGradGradGradGradGradGradGradGradGrad

                          Input orientation:                          
 ---------------------------------------------------------------------
 Center     Atomic      Atomic             Coordinates (Angstroms)
 Number     Number       Type             X           Y           Z
 ---------------------------------------------------------------------
      1          6           0       -4.415100   -1.125700    0.230500
      2          6           0       -2.927200   -1.255700    0.081500
      3          6           0       -2.297900   -0.844800   -1.101500
      4          6           0       -0.910600   -0.925800   -1.230600
      5          6           0       -0.148700   -1.406400   -0.163300
      6          6           0       -0.761500   -1.824000    1.020900
      7          6           0       -2.149000   -1.738000    1.142900
      8         16           0        1.620400   -1.487700   -0.296400
      9          7           0        2.108400   -0.360100    0.811900
     10          8           0        2.036800   -2.782900    0.192300
     11          8           0        1.994500   -1.005400   -1.610500
     12          6           0        1.855900    1.003200    0.798500
     13          7           0        1.602500    1.564500   -0.414100
     14          6           0        1.243500    2.954500   -0.585500
     15          6           0       -0.252700    3.129600   -0.844700
     16          8           0        1.891000    1.620500    1.851100
     17          1           0        2.365500   -0.748700    1.713500
     18          6           0       -1.112100    2.805200    0.379400
     19          6           0       -2.589400    3.029400    0.096500
     20          1           0       -4.917200   -1.265800   -0.732500
     21          1           0       -4.665700   -0.134200    0.620200
     22          1           0       -4.807700   -1.885000    0.914800
     23          1           0       -2.888100   -0.457400   -1.929900
     24          1           0       -0.441100   -0.608100   -2.158300
     25          1           0       -0.171600   -2.211600    1.848000
     26          1           0       -2.622700   -2.051600    2.071300
     27          1           0        1.744900    0.984900   -1.248000
     28          1           0        1.806900    3.316300   -1.452200
     29          1           0        1.557000    3.539100    0.285900
     30          1           0       -0.433800    4.169500   -1.142700
     31          1           0       -0.558500    2.496000   -1.686500
     32          1           0       -0.967300    1.763200    0.682500
     33          1           0       -0.807900    3.434000    1.224200
     34          1           0       -2.931300    2.398800   -0.730300
     35          1           0       -3.186000    2.783000    0.980300
     36          1           0       -2.784500    4.074300   -0.164900
 ---------------------------------------------------------------------
                    Distance matrix (angstroms):
                    1          2          3          4          5
     1  C    0.000000
     2  C    1.500982   0.000000
     3  C    2.517075   1.401551   0.000000
     4  C    3.802143   2.428398   1.395646   0.000000
     5  C    4.293721   2.793331   2.411364   1.396638   0.000000
     6  C    3.802782   2.428105   2.797131   2.428631   1.397227
     7  C    2.518451   1.401706   2.420188   2.797643   2.411912
     8  S    6.069261   4.569168   4.051491   2.755798   1.775962
     9  N    6.593953   5.166512   4.828200   3.688656   2.672126
    10  O    6.661440   5.194797   4.921359   3.763061   2.607223
    11  O    6.669837   5.210436   4.325456   2.930916   2.616963
    12  C    6.646825   5.338049   4.927389   3.935964   3.278666
    13  N    6.623005   5.358855   4.635770   3.630969   3.457723
    14  C    7.023791   5.963674   5.219430   4.484755   4.597165
    15  C    6.048901   5.219354   4.477125   4.126502   4.588073
    16  O    7.066460   5.883797   5.687041   4.881545   4.168970
    17  H    6.951112   5.561757   5.448005   4.408165   3.205643
    18  C    5.136531   4.458054   4.113598   4.068546   4.354335
    19  C    4.540484   4.298420   4.065661   4.497018   5.069599
    20  H    1.095035   2.150069   2.678457   4.051734   4.804409
    21  H    1.094412   2.137836   3.012587   4.260618   4.757694
    22  H    1.094960   2.150974   3.383279   4.550845   4.806000
    23  H    2.728678   2.164380   1.088421   2.149169   3.394965
    24  H    4.665507   3.408340   2.149549   1.087194   2.168595
    25  H    4.669344   3.409926   3.884436   3.417189   2.166610
    26  H    2.731032   2.164597   3.410062   3.886033   3.395644
    27  H    6.677289   5.349428   4.439988   3.271507   3.237377
    28  H    7.827907   6.757745   5.855521   5.042750   5.271578
    29  H    7.578219   6.568100   6.000309   5.322044   5.250635
    30  H    6.765765   6.094957   5.349745   5.118315   5.668436
    31  H    5.627163   4.776172   3.811651   3.469947   4.209133
    32  H    4.520771   3.649132   3.428530   3.300589   3.381102
    33  H    5.898321   5.271668   5.092849   5.004443   5.078304
    34  H    3.942956   3.743582   3.325647   3.922562   4.748042
    35  H    4.165432   4.145590   4.275926   4.880648   5.299442
    36  H    5.463991   5.337600   5.031058   5.445018   6.081572
                    6          7          8          9         10
     6  C    0.000000
     7  C    1.395506   0.000000
     8  S    2.742594   4.042600   0.000000
     9  N    3.228469   4.487051   1.654677   0.000000
    10  O    3.071897   4.417734   1.445600   2.501797   0.000000
    11  O    3.897423   5.028569   1.448939   2.509464   2.532071
    12  C    3.859184   4.865389   2.731089   1.386551   3.838588
    13  N    4.373746   5.234931   3.054521   2.337327   4.410921
    14  C    5.425367   6.042845   4.467524   3.699642   5.843976
    15  C    5.317659   5.589279   5.012843   4.527375   6.424549
    16  O    4.426010   5.301195   3.787597   2.247215   4.707739
    17  H    3.378475   4.656717   2.267376   1.014886   2.561262
    18  C    4.686570   4.722156   5.133444   4.536276   6.416965
    19  C    5.267943   4.900715   6.187162   5.836937   7.429249
    20  H    4.544870   3.376837   6.555886   7.250139   7.177393
    21  H    4.273027   3.029714   6.495165   6.780576   7.219572
    22  H    4.048050   2.672513   6.553268   7.082962   6.940851
    23  H    3.885517   3.410030   4.904734   5.700171   5.845197
    24  H    3.418828   3.884780   2.913786   3.922186   4.049082
    25  H    1.087341   2.152109   2.886823   3.114475   2.818644
    26  H    2.149234   1.088422   4.891614   5.179823   5.077045
    27  H    4.395437   5.319121   2.652319   2.486834   4.044254
    28  H    6.255844   6.923123   4.944600   4.328160   6.321193
    29  H    5.888846   6.505126   5.060811   3.972968   6.340872
    30  H    6.380485   6.562350   6.077818   5.549821   7.498130
    31  H    5.102316   5.334974   4.748668   4.638067   6.175132
    32  H    3.608999   3.723813   4.268816   3.739663   5.471009
    33  H    5.262133   5.343664   5.694910   4.803123   6.914259
    34  H    5.060314   4.608035   6.000927   5.948822   7.237626
    35  H    5.206179   4.641255   6.555175   6.159392   7.673189
    36  H    6.347330   5.991413   7.096216   6.675216   8.390096
                   11         12         13         14         15
    11  O    0.000000
    12  C    3.139580   0.000000
    13  N    2.861717   1.360025   0.000000
    14  C    4.158778   2.469425   1.445807   0.000000
    15  C    4.768080   3.415827   2.465101   1.528548   0.000000
    16  O    4.346118   1.220761   2.284185   2.852338   3.760342
    17  H    3.354476   2.041095   3.234153   4.500886   5.332970
    18  C    5.303898   3.497409   3.088370   2.549936   1.530433
    19  C    6.340789   4.935482   4.469751   3.893823   2.521124
    20  H    6.972108   7.305286   7.114665   7.469054   6.410124
    21  H    7.077660   6.622442   6.576145   6.775871   5.680923
    22  H    7.308951   7.263525   7.399709   7.892318   6.999291
    23  H    4.923627   5.664191   5.152787   5.524363   4.581437
    24  H    2.527861   4.076170   3.455246   4.243076   3.966288
    25  H    4.255365   3.942987   4.745889   5.883283   5.982109
    26  H    5.997393   5.568634   6.091445   6.860549   6.400374
    27  H    2.038382   2.049590   1.025477   2.137670   2.958512
    28  H    4.328665   3.227768   2.046518   1.095211   2.155427
    29  H    4.943705   2.604398   2.095499   1.095161   2.172777
    30  H    5.735422   4.363077   3.385764   2.144769   1.096810
    31  H    4.333980   3.772665   2.675185   2.160932   1.097082
    32  H    4.657816   2.926007   2.801051   2.813300   2.170263
    33  H    5.966342   3.631231   3.462526   2.777261   2.163620
    34  H    6.052011   5.215574   4.620755   4.214110   2.778858
    35  H    6.921113   5.349906   5.134085   4.701235   3.472032
    36  H    7.122637   5.647398   5.060333   4.201862   2.786503
                   16         17         18         19         20
    16  O    0.000000
    17  H    2.420164   0.000000
    18  C    3.547961   5.148177   0.000000
    19  C    5.013742   6.437372   1.520761   0.000000
    20  H    7.833090   7.699872   5.682266   4.955264   0.000000
    21  H    6.898145   7.142177   4.618022   3.820163   1.781451
    22  H    7.618252   7.306429   5.995172   5.453604   1.763235
    23  H    6.438434   6.399963   4.373969   4.043920   2.490888
    24  H    5.145934   4.784099   4.305901   4.788603   4.743516
    25  H    4.351933   2.931730   5.311272   6.031715   5.483998
    26  H    5.822911   5.167950   5.360312   5.451376   3.707224
    27  H    3.166979   3.487262   3.758241   4.977330   7.050884
    28  H    3.714108   5.182462   3.483754   4.669929   8.168668
    29  H    2.498486   4.590963   2.769738   4.181901   8.126467
    30  H    4.567815   6.338979   2.153647   2.735335   7.057735
    31  H    4.391032   5.535147   2.161023   2.754661   5.836054
    32  H    3.091257   4.298855   1.094806   2.139595   5.174821
    33  H    3.311472   5.273032   1.096182   2.146893   6.542411
    34  H    5.524849   6.628349   2.169351   1.094600   4.168105
    35  H    5.280684   6.620396   2.159314   1.094416   4.724777
    36  H    5.652052   7.301521   2.168824   1.094628   5.778170
                   21         22         23         24         25
    21  H    0.000000
    22  H    1.781082   0.000000
    23  H    3.125273   3.716884   0.000000
    24  H    5.078572   5.490138   2.462252   0.000000
    25  H    5.100982   4.740354   4.972838   4.323688   0.000000
    26  H    3.155307   2.477796   4.315265   4.973187   2.466446
    27  H    6.770402   7.473326   4.899990   2.853926   4.845183
    28  H    7.622030   8.741232   6.042519   4.577444   6.735240
    29  H    7.233732   8.386047   6.375006   5.212081   6.204737
    30  H    6.287975   7.747340   5.296364   4.884359   7.052054
    31  H    5.395175   6.634427   3.769463   3.141944   5.899481
    32  H    4.157183   5.302075   3.930034   3.737659   4.217886
    33  H    5.289564   6.662274   5.423889   5.283410   5.715488
    34  H    3.353816   4.957638   3.098191   4.157130   5.959812
    35  H    3.290781   4.942107   4.365570   5.374462   5.897927
    36  H    4.676192   6.385323   4.864387   5.602681   7.098701
                   26         27         28         29         30
    26  H    0.000000
    27  H    6.270089   0.000000
    28  H    7.800690   2.341147   0.000000
    29  H    7.205100   2.985313   1.770051   0.000000
    30  H    7.336427   3.859987   2.417535   2.530136   0.000000
    31  H    6.250012   2.789508   2.514539   3.074697   1.764050
    32  H    4.384269   3.418861   3.829523   3.111785   3.066962
    33  H    5.839768   4.315860   3.743548   2.546410   2.506617
    34  H    5.267851   4.912634   4.879906   4.741074   3.089168
    35  H    4.988080   5.701952   5.579473   4.852827   3.742207
    36  H    6.523298   5.588646   4.828318   4.397531   2.547734
                   31         32         33         34         35
    31  H    0.000000
    32  H    2.513220   0.000000
    33  H    3.068260   1.763638   0.000000
    34  H    2.560068   2.501457   3.066029   0.000000
    35  H    3.754723   2.459940   2.477629   1.771619   0.000000
    36  H    3.124320   3.059655   2.499306   1.774409   1.772044
                   36
    36  H    0.000000
 Stoichiometry    C12H18N2O3S
 Framework group  C1[X(C12H18N2O3S)]
 Deg. of freedom   102
 Full point group                 C1      NOp   1
 Largest Abelian subgroup         C1      NOp   1
 Largest concise Abelian subgroup C1      NOp   1
                         Standard orientation:                         
 ---------------------------------------------------------------------
 Center     Atomic      Atomic             Coordinates (Angstroms)
 Number     Number       Type             X           Y           Z
 ---------------------------------------------------------------------
      1          6           0       -4.341832   -1.157710    0.192856
      2          6           0       -2.854558   -1.298369    0.047329
      3          6           0       -2.216600   -0.870236   -1.124873
      4          6           0       -0.829561   -0.961375   -1.249952
      5          6           0       -0.076533   -1.469648   -0.189194
      6          6           0       -0.698058   -1.904654    0.984143
      7          6           0       -2.085222   -1.808375    1.102220
      8         16           0        1.692301   -1.564498   -0.316742
      9          7           0        2.185836   -0.463241    0.815340
     10          8           0        2.094897   -2.872736    0.148218
     11          8           0        2.076269   -1.060091   -1.619649
     12          6           0        1.945753    0.902312    0.827575
     13          7           0        1.702541    1.489454   -0.374831
     14          6           0        1.356869    2.885755   -0.520471
     15          6           0       -0.136582    3.079543   -0.782214
     16          8           0        1.982022    1.498612    1.892172
     17          1           0        2.435617   -0.871689    1.710199
     18          6           0       -1.004018    2.739191    0.431845
     19          6           0       -2.478025    2.982357    0.147443
     20          1           0       -4.841132   -1.274402   -0.774710
     21          1           0       -4.585075   -0.171753    0.600851
     22          1           0       -4.744163   -1.926596    0.860600
     23          1           0       -2.799783   -0.461371   -1.947910
     24          1           0       -0.353311   -0.629941   -2.169369
     25          1           0       -0.115171   -2.313690    1.805874
     26          1           0       -2.565638   -2.135686    2.022400
     27          1           0        1.843186    0.924955   -1.219322
     28          1           0        1.927157    3.259232   -1.377661
     29          1           0        1.671989    3.450355    0.363443
     30          1           0       -0.307003    4.126671   -1.060557
     31          1           0       -0.444571    2.465307   -1.637461
     32          1           0       -0.869936    1.690196    0.715100
     33          1           0       -0.697685    3.348584    1.289991
     34          1           0       -2.822148    2.371158   -0.692894
     35          1           0       -3.080539    2.724224    1.023851
     36          1           0       -2.662554    4.033897   -0.094266
 ---------------------------------------------------------------------
 Rotational constants (GHZ):      0.4149495      0.3731753      0.2387836
 Standard basis: def2TZVP (5D, 7F)
 There are   762 symmetry adapted cartesian basis functions of A   symmetry.
 There are   672 symmetry adapted basis functions of A   symmetry.
   672 basis functions,  1080 primitive gaussians,   762 cartesian basis functions
    72 alpha electrons       72 beta electrons
       nuclear repulsion energy      1587.0791283604 Hartrees.
 NAtoms=   36 NActive=   36 NUniq=   36 SFac= 1.00D+00 NAtFMM=   60 NAOKFM=F Big=F
 Integral buffers will be    131072 words long.
 Raffenetti 2 integral format.
 Two-electron integral symmetry is turned on.
 One-electron integrals computed using PRISM.
   1 Symmetry operations used in ECPInt.
 ECPInt:  NShTT=   37128 NPrTT=  113514 LenC2=   33827 LenP2D=   73990.
 LDataN:  DoStor=T MaxTD1= 6 Len=  172
 NBasis=   672 RedAO= T EigKep=  7.01D-06  NBF=   672
 NBsUse=   672 1.00D-06 EigRej= -1.00D+00 NBFU=   672
 ExpMin= 9.52D-02 ExpMax= 6.07D+04 ExpMxC= 2.07D+03 IAcc=2 IRadAn=         4 AccDes= 0.00D+00
 Harris functional with IExCor=  402 and IRadAn=       4 diagonalized for initial guess.
 HarFok:  IExCor=  402 AccDes= 0.00D+00 IRadAn=         4 IDoV= 1 UseB2=F ITyADJ=14
 ICtDFT=  3500011 ScaDFX=  1.000000  1.000000  1.000000  1.000000
 FoFCou: FMM=F IPFlag=           0 FMFlag=      100000 FMFlg1=           0
         NFxFlg=           0 DoJE=T BraDBF=F KetDBF=T FulRan=T
         wScrn=  0.000000 ICntrl=     500 IOpCl=  0 I1Cent=   200000004 NGrid=           0
         NMat0=    1 NMatS0=      1 NMatT0=    0 NMatD0=    1 NMtDS0=    0 NMtDT0=    0
 Petite list used in FoFCou.
 Requested convergence on RMS density matrix=1.00D-08 within 128 cycles.
 Requested convergence on MAX density matrix=1.00D-06.
 Requested convergence on             energy=1.00D-06.
 No special actions if energy rises.
 Integral accuracy reduced to 1.0D-05 until final iterations.
 Problem detected with inexpensive integrals.
 Switching to full accuracy and repeating last cycle.
 SCF Done:  E(RB3LYP) =  -1201.84680030     A.U. after   17 cycles
            NFock= 17  Conv=0.47D-08     -V/T= 2.0040

 **********************************************************************

            Population analysis using the SCF density.

 **********************************************************************

 Orbital symmetries:
       Occupied  (A) (A) (A) (A) (A) (A) (A) (A) (A) (A) (A) (A)
                 (A) (A) (A) (A) (A) (A) (A) (A) (A) (A) (A) (A)
                 (A) (A) (A) (A) (A) (A) (A) (A) (A) (A) (A) (A)
                 (A) (A) (A) (A) (A) (A) (A) (A) (A) (A) (A) (A)
                 (A) (A) (A) (A) (A) (A) (A) (A) (A) (A) (A) (A)
                 (A) (A) (A) (A) (A) (A) (A) (A) (A) (A) (A) (A)
       Virtual   (A) (A) (A) (A) (A) (A) (A) (A) (A) (A) (A) (A)
                 (A) (A) (A) (A) (A) (A) (A) (A) (A) (A) (A) (A)
                 (A) (A) (A) (A) (A) (A) (A) (A) (A) (A) (A) (A)
                 (A) (A) (A) (A) (A) (A) (A) (A) (A) (A) (A) (A)
                 (A) (A) (A) (A) (A) (A) (A) (A) (A) (A) (A) (A)
                 (A) (A) (A) (A) (A) (A) (A) (A) (A) (A) (A) (A)
                 (A) (A) (A) (A) (A) (A) (A) (A) (A) (A) (A) (A)
                 (A) (A) (A) (A) (A) (A) (A) (A) (A) (A) (A) (A)
                 (A) (A) (A) (A) (A) (A) (A) (A) (A) (A) (A) (A)
                 (A) (A) (A) (A) (A) (A) (A) (A) (A) (A) (A) (A)
                 (A) (A) (A) (A) (A) (A) (A) (A) (A) (A) (A) (A)
                 (A) (A) (A) (A) (A) (A) (A) (A) (A) (A) (A) (A)
                 (A) (A) (A) (A) (A) (A) (A) (A) (A) (A) (A) (A)
                 (A) (A) (A) (A) (A) (A) (A) (A) (A) (A) (A) (A)
                 (A) (A) (A) (A) (A) (A) (A) (A) (A) (A) (A) (A)
                 (A) (A) (A) (A) (A) (A) (A) (A) (A) (A) (A) (A)
                 (A) (A) (A) (A) (A) (A) (A) (A) (A) (A) (A) (A)
                 (A) (A) (A) (A) (A) (A) (A) (A) (A) (A) (A) (A)
                 (A) (A) (A) (A) (A) (A) (A) (A) (A) (A) (A) (A)
                 (A) (A) (A) (A) (A) (A) (A) (A) (A) (A) (A) (A)
                 (A) (A) (A) (A) (A) (A) (A) (A) (A) (A) (A) (A)
                 (A) (A) (A) (A) (A) (A) (A) (A) (A) (A) (A) (A)
                 (A) (A) (A) (A) (A) (A) (A) (A) (A) (A) (A) (A)
                 (A) (A) (A) (A) (A) (A) (A) (A) (A) (A) (A) (A)
                 (A) (A) (A) (A) (A) (A) (A) (A) (A) (A) (A) (A)
                 (A) (A) (A) (A) (A) (A) (A) (A) (A) (A) (A) (A)
                 (A) (A) (A) (A) (A) (A) (A) (A) (A) (A) (A) (A)
                 (A) (A) (A) (A) (A) (A) (A) (A) (A) (A) (A) (A)
                 (A) (A) (A) (A) (A) (A) (A) (A) (A) (A) (A) (A)
                 (A) (A) (A) (A) (A) (A) (A) (A) (A) (A) (A) (A)
                 (A) (A) (A) (A) (A) (A) (A) (A) (A) (A) (A) (A)
                 (A) (A) (A) (A) (A) (A) (A) (A) (A) (A) (A) (A)
                 (A) (A) (A) (A) (A) (A) (A) (A) (A) (A) (A) (A)
                 (A) (A) (A) (A) (A) (A) (A) (A) (A) (A) (A) (A)
                 (A) (A) (A) (A) (A) (A) (A) (A) (A) (A) (A) (A)
                 (A) (A) (A) (A) (A) (A) (A) (A) (A) (A) (A) (A)
                 (A) (A) (A) (A) (A) (A) (A) (A) (A) (A) (A) (A)
                 (A) (A) (A) (A) (A) (A) (A) (A) (A) (A) (A) (A)
                 (A) (A) (A) (A) (A) (A) (A) (A) (A) (A) (A) (A)
                 (A) (A) (A) (A) (A) (A) (A) (A) (A) (A) (A) (A)
                 (A) (A) (A) (A) (A) (A) (A) (A) (A) (A) (A) (A)
                 (A) (A) (A) (A) (A) (A) (A) (A) (A) (A) (A) (A)
                 (A) (A) (A) (A) (A) (A) (A) (A) (A) (A) (A) (A)
                 (A) (A) (A) (A) (A) (A) (A) (A) (A) (A) (A) (A)
                 (A) (A) (A) (A) (A) (A) (A) (A) (A) (A) (A) (A)
                 (A) (A) (A) (A) (A) (A) (A) (A) (A) (A) (A) (A)
                 (A) (A) (A) (A) (A) (A) (A) (A) (A) (A) (A) (A)
                 (A) (A) (A) (A) (A) (A) (A) (A) (A) (A) (A) (A)
                 (A) (A) (A) (A) (A) (A) (A) (A) (A) (A) (A) (A)
                 (A) (A) (A) (A) (A) (A) (A) (A) (A) (A) (A) (A)
 The electronic state is 1-A.
 Alpha  occ. eigenvalues --  -89.07681 -19.14205 -19.13932 -19.09605 -14.37251
 Alpha  occ. eigenvalues --  -14.34583 -10.31318 -10.22352 -10.21440 -10.21172
 Alpha  occ. eigenvalues --  -10.21152 -10.21021 -10.20228 -10.20134 -10.18893
 Alpha  occ. eigenvalues --  -10.17428 -10.16690 -10.16303  -8.12208  -6.08605
 Alpha  occ. eigenvalues --   -6.08386  -6.08372  -1.13968  -1.06305  -1.03054
 Alpha  occ. eigenvalues --   -0.95006  -0.92763  -0.89092  -0.81179  -0.80162
 Alpha  occ. eigenvalues --   -0.77729  -0.74213  -0.73125  -0.68427  -0.65816
 Alpha  occ. eigenvalues --   -0.63993  -0.62157  -0.60169  -0.59101  -0.57594
 Alpha  occ. eigenvalues --   -0.55823  -0.52739  -0.50013  -0.49777  -0.48807
 Alpha  occ. eigenvalues --   -0.47189  -0.46595  -0.45898  -0.45530  -0.45315
 Alpha  occ. eigenvalues --   -0.44774  -0.44410  -0.42780  -0.42700  -0.40939
 Alpha  occ. eigenvalues --   -0.39394  -0.39235  -0.38703  -0.37707  -0.37386
 Alpha  occ. eigenvalues --   -0.37060  -0.35436  -0.35322  -0.34272  -0.33705
 Alpha  occ. eigenvalues --   -0.33563  -0.33373  -0.31141  -0.28626  -0.28159
 Alpha  occ. eigenvalues --   -0.27298  -0.26442
 Alpha virt. eigenvalues --   -0.05725  -0.04292   0.01077   0.01671   0.02570
 Alpha virt. eigenvalues --    0.03359   0.04296   0.05086   0.06223   0.06326
 Alpha virt. eigenvalues --    0.06891   0.07483   0.07667   0.08384   0.08892
 Alpha virt. eigenvalues --    0.09611   0.10200   0.10527   0.11189   0.11396
 Alpha virt. eigenvalues --    0.11585   0.12246   0.12917   0.13071   0.13913
 Alpha virt. eigenvalues --    0.14334   0.14855   0.15363   0.15688   0.16671
 Alpha virt. eigenvalues --    0.17287   0.17726   0.18823   0.19361   0.19858
 Alpha virt. eigenvalues --    0.20348   0.20917   0.21360   0.22312   0.22996
 Alpha virt. eigenvalues --    0.23762   0.24232   0.24590   0.24917   0.25536
 Alpha virt. eigenvalues --    0.26085   0.26758   0.27405   0.28159   0.28598
 Alpha virt. eigenvalues --    0.29101   0.30148   0.30670   0.31133   0.31531
 Alpha virt. eigenvalues --    0.31833   0.33082   0.33736   0.33989   0.34529
 Alpha virt. eigenvalues --    0.35269   0.35304   0.36196   0.37325   0.38081
 Alpha virt. eigenvalues --    0.38165   0.38364   0.39105   0.39850   0.40148
 Alpha virt. eigenvalues --    0.40954   0.41123   0.41270   0.41684   0.42447
 Alpha virt. eigenvalues --    0.42957   0.43527   0.43891   0.44122   0.44591
 Alpha virt. eigenvalues --    0.45106   0.45389   0.46132   0.46336   0.46741
 Alpha virt. eigenvalues --    0.47120   0.47312   0.47989   0.48274   0.48991
 Alpha virt. eigenvalues --    0.49314   0.49721   0.49938   0.50345   0.50731
 Alpha virt. eigenvalues --    0.51233   0.52360   0.53331   0.53698   0.54135
 Alpha virt. eigenvalues --    0.55059   0.55827   0.56279   0.57743   0.58253
 Alpha virt. eigenvalues --    0.58725   0.59760   0.59991   0.60626   0.61225
 Alpha virt. eigenvalues --    0.62455   0.63413   0.63636   0.65623   0.66364
 Alpha virt. eigenvalues --    0.66760   0.67860   0.68166   0.68644   0.70041
 Alpha virt. eigenvalues --    0.70234   0.71150   0.71496   0.72465   0.73754
 Alpha virt. eigenvalues --    0.74475   0.75262   0.75610   0.75841   0.77715
 Alpha virt. eigenvalues --    0.78318   0.78563   0.79025   0.80184   0.81490
 Alpha virt. eigenvalues --    0.82423   0.82845   0.83790   0.84359   0.84945
 Alpha virt. eigenvalues --    0.85140   0.86691   0.87023   0.87956   0.88706
 Alpha virt. eigenvalues --    0.89078   0.90047   0.90591   0.92109   0.94150
 Alpha virt. eigenvalues --    0.94849   0.96639   0.97346   0.97815   0.99326
 Alpha virt. eigenvalues --    1.00798   1.02194   1.02807   1.03518   1.04133
 Alpha virt. eigenvalues --    1.04901   1.05253   1.06108   1.07325   1.07956
 Alpha virt. eigenvalues --    1.10681   1.11137   1.12644   1.13914   1.16043
 Alpha virt. eigenvalues --    1.16438   1.17128   1.17477   1.18854   1.19599
 Alpha virt. eigenvalues --    1.20074   1.20407   1.20956   1.22005   1.22539
 Alpha virt. eigenvalues --    1.23774   1.25117   1.25358   1.26656   1.27345
 Alpha virt. eigenvalues --    1.28558   1.28943   1.29719   1.31186   1.31736
 Alpha virt. eigenvalues --    1.33295   1.33924   1.34848   1.36021   1.37773
 Alpha virt. eigenvalues --    1.38429   1.39247   1.42478   1.43037   1.45828
 Alpha virt. eigenvalues --    1.46102   1.46821   1.47847   1.49220   1.49513
 Alpha virt. eigenvalues --    1.50003   1.50696   1.51342   1.52660   1.52946
 Alpha virt. eigenvalues --    1.53361   1.54135   1.54430   1.55227   1.55906
 Alpha virt. eigenvalues --    1.56272   1.56785   1.58000   1.58133   1.58392
 Alpha virt. eigenvalues --    1.58957   1.59600   1.59988   1.60439   1.61438
 Alpha virt. eigenvalues --    1.62181   1.63030   1.63517   1.64347   1.65372
 Alpha virt. eigenvalues --    1.65728   1.67341   1.68317   1.69741   1.69979
 Alpha virt. eigenvalues --    1.70599   1.71461   1.71829   1.73056   1.73597
 Alpha virt. eigenvalues --    1.74351   1.76485   1.76866   1.77407   1.78493
 Alpha virt. eigenvalues --    1.80231   1.81284   1.82141   1.83677   1.84477
 Alpha virt. eigenvalues --    1.85370   1.86760   1.87455   1.87866   1.88951
 Alpha virt. eigenvalues --    1.89609   1.90856   1.91876   1.92848   1.95561
 Alpha virt. eigenvalues --    1.96347   1.97352   1.97847   1.98909   1.99972
 Alpha virt. eigenvalues --    2.00280   2.00783   2.01275   2.03841   2.04774
 Alpha virt. eigenvalues --    2.05142   2.06277   2.07650   2.08526   2.10346
 Alpha virt. eigenvalues --    2.10865   2.12307   2.12635   2.14324   2.15056
 Alpha virt. eigenvalues --    2.15723   2.16400   2.17328   2.18199   2.19066
 Alpha virt. eigenvalues --    2.19533   2.20437   2.21522   2.23637   2.23907
 Alpha virt. eigenvalues --    2.25766   2.26866   2.27213   2.28378   2.29757
 Alpha virt. eigenvalues --    2.31268   2.31907   2.33728   2.34218   2.34960
 Alpha virt. eigenvalues --    2.35408   2.36522   2.37115   2.37984   2.38743
 Alpha virt. eigenvalues --    2.39896   2.40455   2.41902   2.43188   2.43774
 Alpha virt. eigenvalues --    2.44201   2.44995   2.45348   2.46052   2.47121
 Alpha virt. eigenvalues --    2.47967   2.49145   2.50582   2.52016   2.52548
 Alpha virt. eigenvalues --    2.53519   2.54046   2.55270   2.56049   2.56704
 Alpha virt. eigenvalues --    2.57344   2.58381   2.59222   2.59665   2.60448
 Alpha virt. eigenvalues --    2.60874   2.62357   2.63525   2.64578   2.64703
 Alpha virt. eigenvalues --    2.65575   2.66480   2.67239   2.67665   2.68313
 Alpha virt. eigenvalues --    2.69090   2.70053   2.70765   2.72356   2.72598
 Alpha virt. eigenvalues --    2.73513   2.74429   2.75146   2.75506   2.77019
 Alpha virt. eigenvalues --    2.77430   2.77785   2.79361   2.79816   2.81148
 Alpha virt. eigenvalues --    2.82799   2.83243   2.84304   2.86529   2.87530
 Alpha virt. eigenvalues --    2.88087   2.89441   2.91279   2.92583   2.93576
 Alpha virt. eigenvalues --    2.94191   2.95377   2.97304   2.97538   2.98536
 Alpha virt. eigenvalues --    2.99734   3.00684   3.01423   3.02292   3.03394
 Alpha virt. eigenvalues --    3.04568   3.05732   3.07047   3.07387   3.07811
 Alpha virt. eigenvalues --    3.09191   3.09602   3.10662   3.11227   3.11719
 Alpha virt. eigenvalues --    3.12496   3.13062   3.13623   3.13870   3.14457
 Alpha virt. eigenvalues --    3.14874   3.16275   3.17326   3.17898   3.19391
 Alpha virt. eigenvalues --    3.19433   3.20767   3.21619   3.22598   3.23292
 Alpha virt. eigenvalues --    3.23732   3.24233   3.25220   3.25726   3.26511
 Alpha virt. eigenvalues --    3.27656   3.28281   3.29475   3.29969   3.30629
 Alpha virt. eigenvalues --    3.31666   3.32064   3.32858   3.33416   3.34576
 Alpha virt. eigenvalues --    3.35082   3.36162   3.36526   3.37923   3.38767
 Alpha virt. eigenvalues --    3.39610   3.40527   3.41669   3.42127   3.42621
 Alpha virt. eigenvalues --    3.43729   3.44265   3.44972   3.45678   3.46407
 Alpha virt. eigenvalues --    3.47607   3.48269   3.49357   3.49411   3.50306
 Alpha virt. eigenvalues --    3.51427   3.52158   3.53524   3.55426   3.57276
 Alpha virt. eigenvalues --    3.57956   3.58794   3.60511   3.61988   3.63361
 Alpha virt. eigenvalues --    3.65570   3.67742   3.71211   3.72001   3.72485
 Alpha virt. eigenvalues --    3.73454   3.73842   3.75947   3.78598   3.79736
 Alpha virt. eigenvalues --    3.81550   3.82821   3.84399   3.85971   3.86141
 Alpha virt. eigenvalues --    3.88605   3.89427   3.90473   3.91773   3.94036
 Alpha virt. eigenvalues --    3.96735   3.98128   3.99698   3.99894   4.02298
 Alpha virt. eigenvalues --    4.06191   4.07765   4.08418   4.09796   4.10809
 Alpha virt. eigenvalues --    4.11674   4.12997   4.15681   4.17734   4.18375
 Alpha virt. eigenvalues --    4.19444   4.20462   4.21238   4.23413   4.24134
 Alpha virt. eigenvalues --    4.25088   4.26797   4.29762   4.30558   4.32258
 Alpha virt. eigenvalues --    4.33682   4.36056   4.37004   4.37935   4.40245
 Alpha virt. eigenvalues --    4.42354   4.44320   4.45333   4.51946   4.54363
 Alpha virt. eigenvalues --    4.55156   4.55847   4.57583   4.59606   4.62757
 Alpha virt. eigenvalues --    4.64909   4.65755   4.66991   4.67383   4.68103
 Alpha virt. eigenvalues --    4.73833   4.74601   4.76293   4.80044   4.84680
 Alpha virt. eigenvalues --    4.86508   4.87232   4.88069   4.90022   4.93627
 Alpha virt. eigenvalues --    4.95554   5.01390   5.03261   5.04833   5.06643
 Alpha virt. eigenvalues --    5.07977   5.11336   5.12552   5.12896   5.13392
 Alpha virt. eigenvalues --    5.13431   5.14313   5.15380   5.16397   5.18353
 Alpha virt. eigenvalues --    5.19728   5.23191   5.24184   5.25708   5.26644
 Alpha virt. eigenvalues --    5.28368   5.30192   5.32442   5.33355   5.35101
 Alpha virt. eigenvalues --    5.39353   5.40239   5.42250   5.45815   5.48136
 Alpha virt. eigenvalues --    5.53144   5.57113   5.60979   5.62613   5.63703
 Alpha virt. eigenvalues --    5.65178   5.71461   5.77902   5.81145   5.91324
 Alpha virt. eigenvalues --    6.00621   6.14751   6.29806   6.33488   6.35712
 Alpha virt. eigenvalues --    6.39574   6.40694   6.45543   6.59160   6.70170
 Alpha virt. eigenvalues --    6.77986   6.80191   6.81995   6.83253   6.85188
 Alpha virt. eigenvalues --    6.88117   6.94529   7.07809   7.14118   9.35688
 Alpha virt. eigenvalues --    9.47845   9.71271  22.06492  22.31259  22.33093
 Alpha virt. eigenvalues --   22.36929  22.43137  22.49227  22.55896  22.64005
 Alpha virt. eigenvalues --   22.66589  22.72355  22.85042  23.20008  23.47285
 Alpha virt. eigenvalues --   32.24884  32.52714  43.62642  43.86815  43.91421
          Condensed to atoms (all electrons):
               1          2          3          4          5          6
     1  C    4.972127   0.286911  -0.075007   0.013119  -0.004470   0.013956
     2  C    0.286911   5.032038   0.402900   0.032264  -0.121373   0.041735
     3  C   -0.075007   0.402900   5.134433   0.360498   0.018195  -0.047328
     4  C    0.013119   0.032264   0.360498   5.149903   0.359166  -0.073256
     5  C   -0.004470  -0.121373   0.018195   0.359166   5.470817   0.266449
     6  C    0.013956   0.041735  -0.047328  -0.073256   0.266449   5.189528
     7  C   -0.071600   0.403622  -0.018774  -0.069141   0.056251   0.331123
     8  S   -0.000015  -0.001332   0.003884  -0.034080   0.293046  -0.008103
     9  N   -0.000003  -0.000245  -0.000143   0.007940  -0.106222   0.016229
    10  O   -0.000006  -0.000637   0.000229  -0.002878  -0.089130   0.021097
    11  O   -0.000002   0.000058   0.002412   0.022782  -0.104388   0.008371
    12  C    0.000014   0.000673  -0.000556  -0.002725  -0.001136   0.006218
    13  N   -0.000014  -0.000460  -0.000376   0.003598   0.015458  -0.004066
    14  C    0.000006   0.000107  -0.000155   0.000172  -0.001375   0.000165
    15  C   -0.000016   0.000076   0.000904  -0.003602  -0.001994   0.000005
    16  O    0.000001   0.000038  -0.000032   0.000132  -0.001929   0.001503
    17  H    0.000000   0.000013   0.000007  -0.000964   0.001923   0.001323
    18  C   -0.000024   0.001279  -0.004638   0.002082  -0.000262   0.000977
    19  C   -0.000315  -0.003112   0.000739  -0.001629   0.000408  -0.000082
    20  H    0.427785  -0.056976  -0.007548   0.001938  -0.000140  -0.000560
    21  H    0.385192  -0.025496  -0.003111  -0.000855   0.000606  -0.001367
    22  H    0.425638  -0.058561   0.008072  -0.000932   0.000056   0.001538
    23  H   -0.007971  -0.060271   0.443269  -0.058097   0.013121  -0.003335
    24  H   -0.000210   0.009110  -0.056816   0.427855  -0.038420   0.008932
    25  H   -0.000253   0.011212  -0.002138   0.011339  -0.067973   0.433841
    26  H   -0.007133  -0.060421   0.012164  -0.003044   0.013760  -0.054114
    27  H    0.000001   0.000096  -0.000434   0.000901  -0.001895   0.000144
    28  H   -0.000000   0.000001  -0.000032   0.000014   0.000101  -0.000008
    29  H   -0.000000   0.000001  -0.000013  -0.000042   0.000127   0.000017
    30  H   -0.000002  -0.000005  -0.000002   0.000089   0.000030  -0.000018
    31  H   -0.000006  -0.000177   0.000786   0.001038   0.000283   0.000062
    32  H   -0.000202   0.000095  -0.000247   0.000686  -0.000247  -0.001674
    33  H   -0.000000  -0.000123   0.000157  -0.000139   0.000074   0.000004
    34  H   -0.000216  -0.001903   0.004299  -0.001205   0.000365  -0.000219
    35  H   -0.000268   0.000057  -0.000158   0.000192  -0.000044   0.000014
    36  H    0.000002   0.000189  -0.000058   0.000063  -0.000026   0.000006
               7          8          9         10         11         12
     1  C   -0.071600  -0.000015  -0.000003  -0.000006  -0.000002   0.000014
     2  C    0.403622  -0.001332  -0.000245  -0.000637   0.000058   0.000673
     3  C   -0.018774   0.003884  -0.000143   0.000229   0.002412  -0.000556
     4  C   -0.069141  -0.034080   0.007940  -0.002878   0.022782  -0.002725
     5  C    0.056251   0.293046  -0.106222  -0.089130  -0.104388  -0.001136
     6  C    0.331123  -0.008103   0.016229   0.021097   0.008371   0.006218
     7  C    5.132137   0.007169   0.003330   0.004406  -0.000872  -0.000721
     8  S    0.007169  13.456913   0.305209   0.616238   0.550945  -0.005673
     9  N    0.003330   0.305209   6.691728  -0.047189  -0.049142   0.336960
    10  O    0.004406   0.616238  -0.047189   7.974225  -0.044057  -0.001409
    11  O   -0.000872   0.550945  -0.049142  -0.044057   8.074100  -0.008963
    12  C   -0.000721  -0.005673   0.336960  -0.001409  -0.008963   4.415297
    13  N   -0.000266   0.005218  -0.104736  -0.000598  -0.014420   0.335255
    14  C   -0.000080   0.001417   0.003701  -0.000003   0.002923  -0.044641
    15  C    0.000241  -0.000263  -0.000757   0.000005  -0.000122   0.004537
    16  O   -0.000169   0.000850  -0.103400  -0.000173  -0.000226   0.710727
    17  H    0.000066  -0.015386   0.340683   0.002507   0.002513  -0.024642
    18  C    0.000127  -0.000129   0.000517  -0.000004  -0.000045   0.003115
    19  C    0.000773   0.000008   0.000016   0.000000   0.000000   0.000163
    20  H    0.005802   0.000000   0.000000  -0.000000   0.000000   0.000000
    21  H   -0.001912   0.000002  -0.000002   0.000000  -0.000000  -0.000001
    22  H   -0.005435  -0.000000   0.000000   0.000000   0.000000  -0.000000
    23  H    0.012181  -0.000081   0.000017   0.000011  -0.000025  -0.000020
    24  H   -0.002756  -0.006562   0.000667   0.000269   0.014469  -0.000009
    25  H   -0.049510  -0.000279   0.003612   0.008109   0.000448  -0.000606
    26  H    0.437065  -0.000142   0.000027  -0.000007   0.000004  -0.000014
    27  H   -0.000055  -0.002721  -0.002997   0.000372   0.018307  -0.022263
    28  H   -0.000000   0.000010   0.000028   0.000000  -0.000003   0.005355
    29  H   -0.000002  -0.000081   0.001408   0.000001  -0.000066  -0.009859
    30  H    0.000002   0.000001   0.000005   0.000000  -0.000001  -0.000448
    31  H   -0.000109   0.000017  -0.000068  -0.000001  -0.000045  -0.001173
    32  H    0.000544  -0.000058  -0.000354   0.000012   0.000021  -0.003808
    33  H    0.000005   0.000010   0.000035   0.000000   0.000000   0.000797
    34  H    0.000335   0.000002   0.000004  -0.000000   0.000000   0.000000
    35  H    0.000151  -0.000000  -0.000001   0.000000  -0.000000   0.000028
    36  H   -0.000024  -0.000000  -0.000000  -0.000000   0.000000  -0.000043
              13         14         15         16         17         18
     1  C   -0.000014   0.000006  -0.000016   0.000001   0.000000  -0.000024
     2  C   -0.000460   0.000107   0.000076   0.000038   0.000013   0.001279
     3  C   -0.000376  -0.000155   0.000904  -0.000032   0.000007  -0.004638
     4  C    0.003598   0.000172  -0.003602   0.000132  -0.000964   0.002082
     5  C    0.015458  -0.001375  -0.001994  -0.001929   0.001923  -0.000262
     6  C   -0.004066   0.000165   0.000005   0.001503   0.001323   0.000977
     7  C   -0.000266  -0.000080   0.000241  -0.000169   0.000066   0.000127
     8  S    0.005218   0.001417  -0.000263   0.000850  -0.015386  -0.000129
     9  N   -0.104736   0.003701  -0.000757  -0.103400   0.340683   0.000517
    10  O   -0.000598  -0.000003   0.000005  -0.000173   0.002507  -0.000004
    11  O   -0.014420   0.002923  -0.000122  -0.000226   0.002513  -0.000045
    12  C    0.335255  -0.044641   0.004537   0.710727  -0.024642   0.003115
    13  N    6.732742   0.253440  -0.101236  -0.120189   0.008534   0.011039
    14  C    0.253440   4.860801   0.316603  -0.004851  -0.000267  -0.059459
    15  C   -0.101236   0.316603   5.121011  -0.002032   0.000051   0.276180
    16  O   -0.120189  -0.004851  -0.002032   7.871171   0.007063   0.000086
    17  H    0.008534  -0.000267   0.000051   0.007063   0.423431  -0.000011
    18  C    0.011039  -0.059459   0.276180   0.000086  -0.000011   5.028298
    19  C   -0.002367   0.013467  -0.043639   0.000312   0.000000   0.270654
    20  H   -0.000000   0.000000  -0.000000  -0.000000  -0.000000   0.000017
    21  H    0.000001  -0.000001  -0.000009   0.000000   0.000000  -0.000101
    22  H    0.000000  -0.000000   0.000001  -0.000000  -0.000000  -0.000015
    23  H    0.000017  -0.000024   0.000040  -0.000000  -0.000000  -0.000155
    24  H    0.000920  -0.000265  -0.000018   0.000002  -0.000063  -0.000142
    25  H   -0.000042  -0.000007  -0.000011  -0.000182   0.000205   0.000014
    26  H    0.000003  -0.000001   0.000003  -0.000000  -0.000013  -0.000020
    27  H    0.350834  -0.021817  -0.000636   0.003809  -0.000408  -0.001093
    28  H   -0.035567   0.426670  -0.072765   0.000811   0.000021   0.012667
    29  H   -0.030811   0.414616  -0.043340   0.016981  -0.000088  -0.004201
    30  H    0.009239  -0.039112   0.391022  -0.000104  -0.000001  -0.028582
    31  H    0.004406  -0.032232   0.393965  -0.000018  -0.000002  -0.044128
    32  H    0.004379  -0.007670  -0.038354  -0.001411  -0.000016   0.420287
    33  H   -0.000498  -0.001419  -0.039355   0.001660  -0.000002   0.411208
    34  H    0.000121  -0.000329  -0.004448  -0.000013   0.000000  -0.043605
    35  H    0.000114  -0.000934   0.012439  -0.000010   0.000000  -0.051722
    36  H    0.000012   0.000083  -0.008937  -0.000005  -0.000000  -0.036972
              19         20         21         22         23         24
     1  C   -0.000315   0.427785   0.385192   0.425638  -0.007971  -0.000210
     2  C   -0.003112  -0.056976  -0.025496  -0.058561  -0.060271   0.009110
     3  C    0.000739  -0.007548  -0.003111   0.008072   0.443269  -0.056816
     4  C   -0.001629   0.001938  -0.000855  -0.000932  -0.058097   0.427855
     5  C    0.000408  -0.000140   0.000606   0.000056   0.013121  -0.038420
     6  C   -0.000082  -0.000560  -0.001367   0.001538  -0.003335   0.008932
     7  C    0.000773   0.005802  -0.001912  -0.005435   0.012181  -0.002756
     8  S    0.000008   0.000000   0.000002  -0.000000  -0.000081  -0.006562
     9  N    0.000016   0.000000  -0.000002   0.000000   0.000017   0.000667
    10  O    0.000000  -0.000000   0.000000   0.000000   0.000011   0.000269
    11  O    0.000000   0.000000  -0.000000   0.000000  -0.000025   0.014469
    12  C    0.000163   0.000000  -0.000001  -0.000000  -0.000020  -0.000009
    13  N   -0.002367  -0.000000   0.000001   0.000000   0.000017   0.000920
    14  C    0.013467   0.000000  -0.000001  -0.000000  -0.000024  -0.000265
    15  C   -0.043639  -0.000000  -0.000009   0.000001   0.000040  -0.000018
    16  O    0.000312  -0.000000   0.000000  -0.000000  -0.000000   0.000002
    17  H    0.000000  -0.000000   0.000000  -0.000000  -0.000000  -0.000063
    18  C    0.270654   0.000017  -0.000101  -0.000015  -0.000155  -0.000142
    19  C    4.962175  -0.000008   0.000770   0.000017   0.000097   0.000010
    20  H   -0.000008   0.559117  -0.026184  -0.027114   0.001552  -0.000024
    21  H    0.000770  -0.026184   0.563100  -0.025790   0.000665   0.000005
    22  H    0.000017  -0.027114  -0.025790   0.557837   0.000058   0.000011
    23  H    0.000097   0.001552   0.000665   0.000058   0.547079  -0.006351
    24  H    0.000010  -0.000024   0.000005   0.000011  -0.006351   0.503395
    25  H   -0.000004   0.000015  -0.000000  -0.000032   0.000051  -0.000141
    26  H    0.000021  -0.000019   0.000601   0.002099  -0.000156   0.000054
    27  H    0.000088  -0.000000  -0.000000   0.000000  -0.000015   0.000672
    28  H   -0.000915   0.000000   0.000000   0.000000  -0.000001   0.000037
    29  H   -0.000079   0.000000  -0.000000   0.000000   0.000000   0.000008
    30  H   -0.007524  -0.000000   0.000001   0.000000   0.000001   0.000008
    31  H   -0.006028  -0.000000  -0.000003   0.000000   0.000229   0.000883
    32  H   -0.039735  -0.000008   0.000110   0.000006   0.000026  -0.000118
    33  H   -0.043311  -0.000000  -0.000001   0.000000   0.000011   0.000004
    34  H    0.405460  -0.000017  -0.000205   0.000025   0.001055  -0.000042
    35  H    0.416984   0.000011   0.000585   0.000001  -0.000022   0.000004
    36  H    0.405301  -0.000000  -0.000028   0.000000  -0.000008   0.000001
              25         26         27         28         29         30
     1  C   -0.000253  -0.007133   0.000001  -0.000000  -0.000000  -0.000002
     2  C    0.011212  -0.060421   0.000096   0.000001   0.000001  -0.000005
     3  C   -0.002138   0.012164  -0.000434  -0.000032  -0.000013  -0.000002
     4  C    0.011339  -0.003044   0.000901   0.000014  -0.000042   0.000089
     5  C   -0.067973   0.013760  -0.001895   0.000101   0.000127   0.000030
     6  C    0.433841  -0.054114   0.000144  -0.000008   0.000017  -0.000018
     7  C   -0.049510   0.437065  -0.000055  -0.000000  -0.000002   0.000002
     8  S   -0.000279  -0.000142  -0.002721   0.000010  -0.000081   0.000001
     9  N    0.003612   0.000027  -0.002997   0.000028   0.001408   0.000005
    10  O    0.008109  -0.000007   0.000372   0.000000   0.000001   0.000000
    11  O    0.000448   0.000004   0.018307  -0.000003  -0.000066  -0.000001
    12  C   -0.000606  -0.000014  -0.022263   0.005355  -0.009859  -0.000448
    13  N   -0.000042   0.000003   0.350834  -0.035567  -0.030811   0.009239
    14  C   -0.000007  -0.000001  -0.021817   0.426670   0.414616  -0.039112
    15  C   -0.000011   0.000003  -0.000636  -0.072765  -0.043340   0.391022
    16  O   -0.000182  -0.000000   0.003809   0.000811   0.016981  -0.000104
    17  H    0.000205  -0.000013  -0.000408   0.000021  -0.000088  -0.000001
    18  C    0.000014  -0.000020  -0.001093   0.012667  -0.004201  -0.028582
    19  C   -0.000004   0.000021   0.000088  -0.000915  -0.000079  -0.007524
    20  H    0.000015  -0.000019  -0.000000   0.000000   0.000000  -0.000000
    21  H   -0.000000   0.000601  -0.000000   0.000000  -0.000000   0.000001
    22  H   -0.000032   0.002099   0.000000   0.000000   0.000000   0.000000
    23  H    0.000051  -0.000156  -0.000015  -0.000001   0.000000   0.000001
    24  H   -0.000141   0.000054   0.000672   0.000037   0.000008   0.000008
    25  H    0.535184  -0.007372  -0.000019   0.000000   0.000002  -0.000000
    26  H   -0.007372   0.549476  -0.000000  -0.000000  -0.000000   0.000000
    27  H   -0.000019  -0.000000   0.431770  -0.008241   0.004833  -0.000090
    28  H    0.000000  -0.000000  -0.008241   0.584334  -0.021518  -0.002822
    29  H    0.000002  -0.000000   0.004833  -0.021518   0.533038   0.000414
    30  H   -0.000000   0.000000  -0.000090  -0.002822   0.000414   0.612123
    31  H    0.000002   0.000000   0.002147  -0.002266   0.006391  -0.029078
    32  H   -0.000068   0.000008   0.000557  -0.000494   0.000885   0.007331
    33  H    0.000000   0.000000   0.000010   0.000223   0.002740  -0.005487
    34  H    0.000000   0.000003  -0.000008   0.000041  -0.000031   0.000045
    35  H    0.000001   0.000005  -0.000001   0.000022   0.000031  -0.000022
    36  H    0.000000  -0.000000   0.000002  -0.000019   0.000063   0.005287
              31         32         33         34         35         36
     1  C   -0.000006  -0.000202  -0.000000  -0.000216  -0.000268   0.000002
     2  C   -0.000177   0.000095  -0.000123  -0.001903   0.000057   0.000189
     3  C    0.000786  -0.000247   0.000157   0.004299  -0.000158  -0.000058
     4  C    0.001038   0.000686  -0.000139  -0.001205   0.000192   0.000063
     5  C    0.000283  -0.000247   0.000074   0.000365  -0.000044  -0.000026
     6  C    0.000062  -0.001674   0.000004  -0.000219   0.000014   0.000006
     7  C   -0.000109   0.000544   0.000005   0.000335   0.000151  -0.000024
     8  S    0.000017  -0.000058   0.000010   0.000002  -0.000000  -0.000000
     9  N   -0.000068  -0.000354   0.000035   0.000004  -0.000001  -0.000000
    10  O   -0.000001   0.000012   0.000000  -0.000000   0.000000  -0.000000
    11  O   -0.000045   0.000021   0.000000   0.000000  -0.000000   0.000000
    12  C   -0.001173  -0.003808   0.000797   0.000000   0.000028  -0.000043
    13  N    0.004406   0.004379  -0.000498   0.000121   0.000114   0.000012
    14  C   -0.032232  -0.007670  -0.001419  -0.000329  -0.000934   0.000083
    15  C    0.393965  -0.038354  -0.039355  -0.004448   0.012439  -0.008937
    16  O   -0.000018  -0.001411   0.001660  -0.000013  -0.000010  -0.000005
    17  H   -0.000002  -0.000016  -0.000002   0.000000   0.000000  -0.000000
    18  C   -0.044128   0.420287   0.411208  -0.043605  -0.051722  -0.036972
    19  C   -0.006028  -0.039735  -0.043311   0.405460   0.416984   0.405301
    20  H   -0.000000  -0.000008  -0.000000  -0.000017   0.000011  -0.000000
    21  H   -0.000003   0.000110  -0.000001  -0.000205   0.000585  -0.000028
    22  H    0.000000   0.000006   0.000000   0.000025   0.000001   0.000000
    23  H    0.000229   0.000026   0.000011   0.001055  -0.000022  -0.000008
    24  H    0.000883  -0.000118   0.000004  -0.000042   0.000004   0.000001
    25  H    0.000002  -0.000068   0.000000   0.000000   0.000001   0.000000
    26  H    0.000000   0.000008   0.000000   0.000003   0.000005  -0.000000
    27  H    0.002147   0.000557   0.000010  -0.000008  -0.000001   0.000002
    28  H   -0.002266  -0.000494   0.000223   0.000041   0.000022  -0.000019
    29  H    0.006391   0.000885   0.002740  -0.000031   0.000031   0.000063
    30  H   -0.029078   0.007331  -0.005487   0.000045  -0.000022   0.005287
    31  H    0.625225  -0.004058   0.008076   0.004428  -0.000133   0.000264
    32  H   -0.004058   0.584110  -0.027540  -0.006204  -0.005019   0.008589
    33  H    0.008076  -0.027540   0.599804   0.008340  -0.004704  -0.005867
    34  H    0.004428  -0.006204   0.008340   0.598811  -0.028050  -0.030520
    35  H   -0.000133  -0.005019  -0.004704  -0.028050   0.576822  -0.024832
    36  H    0.000264   0.008589  -0.005867  -0.030520  -0.024832   0.583891
 Mulliken charges:
               1
     1  C   -0.357021
     2  C    0.168618
     3  C   -0.175381
     4  C   -0.143183
     5  C    0.030791
     6  C   -0.149105
     7  C   -0.173905
     8  S    0.833968
     9  N   -0.296858
    10  O   -0.441389
    11  O   -0.474977
    12  C    0.309573
    13  N   -0.319683
    14  C   -0.079530
    15  C   -0.155549
    16  O   -0.380402
    17  H    0.253523
    18  C   -0.163239
    19  C   -0.328716
    20  H    0.122361
    21  H    0.133428
    22  H    0.122520
    23  H    0.117051
    24  H    0.144622
    25  H    0.124601
    26  H    0.117165
    27  H    0.248149
    28  H    0.114317
    29  H    0.128575
    30  H    0.087702
    31  H    0.071321
    32  H    0.109637
    33  H    0.095291
    34  H    0.093680
    35  H    0.108458
    36  H    0.103587
 Sum of Mulliken charges =  -0.00000
 Mulliken charges with hydrogens summed into heavy atoms:
               1
     1  C    0.021289
     2  C    0.168618
     3  C   -0.058330
     4  C    0.001438
     5  C    0.030791
     6  C   -0.024505
     7  C   -0.056741
     8  S    0.833968
     9  N   -0.043335
    10  O   -0.441389
    11  O   -0.474977
    12  C    0.309573
    13  N   -0.071534
    14  C    0.163362
    15  C    0.003474
    16  O   -0.380402
    18  C    0.041690
    19  C   -0.022990
 Electronic spatial extent (au):  <R**2>=           4917.1563
 Charge=             -0.0000 electrons
 Dipole moment (field-independent basis, Debye):
    X=             -4.6653    Y=              1.1242    Z=             -0.7404  Tot=              4.8557
 Quadrupole moment (field-independent basis, Debye-Ang):
   XX=           -114.0303   YY=           -121.5580   ZZ=           -116.6546
   XY=              6.9145   XZ=             -0.9924   YZ=            -11.3059
 Traceless Quadrupole moment (field-independent basis, Debye-Ang):
   XX=              3.3840   YY=             -4.1437   ZZ=              0.7597
   XY=              6.9145   XZ=             -0.9924   YZ=            -11.3059
 Octapole moment (field-independent basis, Debye-Ang**2):
  XXX=            -10.5095  YYY=             41.4094  ZZZ=             -5.2263  XYY=             -9.1969
  XXY=             -7.7022  XXZ=              4.6375  XZZ=             -6.8254  YZZ=            -19.1817
  YYZ=              0.2081  XYZ=            -15.5263
 Hexadecapole moment (field-independent basis, Debye-Ang**3):
 XXXX=          -3034.8700 YYYY=          -2809.7001 ZZZZ=           -722.3172 XXXY=             49.7800
 XXXZ=              8.7681 YYYX=             54.5306 YYYZ=            -12.0275 ZZZX=             -4.0301
 ZZZY=            -45.3710 XXYY=          -1034.1934 XXZZ=           -635.9470 YYZZ=           -581.4544
 XXYZ=            -47.6538 YYXZ=            -35.6868 ZZXY=            -17.3536
 N-N= 1.587079128360D+03 E-N=-5.993011557235D+03  KE= 1.197031772966D+03
   1 Symmetry operations used in ECPInt.
 ECPInt:  NShTT=   37128 NPrTT=  113514 LenC2=   33827 LenP2D=   73990.
 LDataN:  DoStor=T MaxTD1= 7 Len=  274
 Calling FoFJK, ICntrl=      2127 FMM=F ISym2X=0 I1Cent= 0 IOpClX= 0 NMat=1 NMatS=1 NMatT=0.
 ***** Axes restored to original set *****
 -------------------------------------------------------------------
 Center     Atomic                   Forces (Hartrees/Bohr)
 Number     Number              X              Y              Z
 -------------------------------------------------------------------
      1        6          -0.002372815   -0.005091561   -0.001524531
      2        6           0.001119601    0.002720414   -0.000740132
      3        6           0.005517959   -0.004092115    0.004837085
      4        6          -0.004037662    0.001187681    0.000690823
      5        6          -0.006041302   -0.001122289   -0.005314367
      6        6          -0.005575600    0.001118202    0.000658641
      7        6           0.007829852   -0.000122785   -0.005026875
      8       16          -0.008896947   -0.011965409   -0.007842353
      9        7           0.011976684   -0.023239924    0.001759220
     10        8           0.003294229    0.016804807   -0.002673210
     11        8          -0.000807865   -0.005854059    0.008859759
     12        6          -0.001357557    0.029720794    0.001645711
     13        7           0.006843896   -0.017841617   -0.000913098
     14        6           0.000101667    0.005037101   -0.008134695
     15        6           0.000026835    0.002159249    0.006245564
     16        8          -0.000358121   -0.002603730   -0.001629837
     17        1          -0.001747158    0.004245752   -0.002035860
     18        6          -0.001933536    0.000780714   -0.002797953
     19        6          -0.003765490   -0.000196373    0.002872524
     20        1           0.000458113    0.002854347    0.002602031
     21        1          -0.002328416   -0.001623623   -0.000514025
     22        1           0.000338551    0.003794905   -0.000174079
     23        1           0.001349885   -0.002157574    0.003139134
     24        1           0.000695719   -0.002345047    0.004874917
     25        1          -0.001165066    0.001241137   -0.003595939
     26        1           0.001019014    0.000807103   -0.003815167
     27        1          -0.001603445    0.007515107    0.011172520
     28        1          -0.000233075    0.001981471    0.002021430
     29        1          -0.000206696   -0.005293042   -0.001732949
     30        1           0.000309832   -0.001039802   -0.000573941
     31        1           0.000925289    0.001513166    0.000440178
     32        1           0.002077802    0.002330866    0.000078380
     33        1           0.001322730   -0.002116764   -0.001331360
     34        1          -0.000518389    0.001364009    0.000750980
     35        1          -0.001144566    0.001063466   -0.002171350
     36        1          -0.001113951   -0.001534578   -0.000107177
 -------------------------------------------------------------------
 Cartesian Forces:  Max     0.029720794 RMS     0.005721342

 GradGradGradGradGradGradGradGradGradGradGradGradGradGradGradGradGradGrad
 Berny optimization.
 FormGI is forming the generalized inverse of G from B-inverse, IUseBI=4.
 Internal  Forces:  Max     0.022496966 RMS     0.004262834
 Search for a local minimum.
 Step number   1 out of a maximum of  192
 All quantities printed in internal units (Hartrees-Bohrs-Radians)
 Mixed Optimization -- RFO/linear search
 Second derivative matrix not updated -- first step.
 ITU=  0
     Eigenvalues ---    0.00363   0.00388   0.00491   0.00688   0.00753
     Eigenvalues ---    0.01086   0.01510   0.01545   0.01599   0.01870
     Eigenvalues ---    0.01896   0.02052   0.02056   0.02078   0.02102
     Eigenvalues ---    0.02110   0.02127   0.02132   0.02138   0.02140
     Eigenvalues ---    0.02221   0.03529   0.03714   0.04305   0.04854
     Eigenvalues ---    0.04913   0.05505   0.05601   0.05699   0.07297
     Eigenvalues ---    0.07328   0.08154   0.08369   0.09463   0.10809
     Eigenvalues ---    0.10916   0.12057   0.12230   0.12693   0.12827
     Eigenvalues ---    0.15538   0.15965   0.16000   0.16000   0.16000
     Eigenvalues ---    0.16000   0.16000   0.16000   0.16000   0.16000
     Eigenvalues ---    0.16000   0.16000   0.18666   0.21903   0.21934
     Eigenvalues ---    0.21972   0.21997   0.22008   0.22162   0.22977
     Eigenvalues ---    0.23992   0.24974   0.24997   0.25000   0.25000
     Eigenvalues ---    0.25000   0.28106   0.29383   0.29558   0.30293
     Eigenvalues ---    0.32274   0.34007   0.34037   0.34108   0.34217
     Eigenvalues ---    0.34223   0.34237   0.34246   0.34263   0.34283
     Eigenvalues ---    0.34286   0.34307   0.34308   0.34996   0.34996
     Eigenvalues ---    0.35122   0.35139   0.38799   0.41857   0.41876
     Eigenvalues ---    0.41949   0.43476   0.45164   0.45542   0.45769
     Eigenvalues ---    0.46184   0.46362   0.47924   0.52942   0.95047
     Eigenvalues ---    0.96415   0.97931
 RFO step:  Lambda=-1.29129796D-02 EMin= 3.63379946D-03
 Linear search not attempted -- first point.
 Iteration  1 RMS(Cart)=  0.36549698 RMS(Int)=  0.00858207
 Iteration  2 RMS(Cart)=  0.06518883 RMS(Int)=  0.00048326
 Iteration  3 RMS(Cart)=  0.00081306 RMS(Int)=  0.00042515
 Iteration  4 RMS(Cart)=  0.00000073 RMS(Int)=  0.00042515
 Variable       Old X    -DE/DX   Delta X   Delta X   Delta X     New X
[...]
 79668,0.00000158,0.00000075,-0.00000115,-0.00001165,-0.00000015,0.0000
 0438,-0.00000585,-0.00000371,0.00000295,0.00002770,0.00000824,-0.00001
 464,-0.00000781,0.00013445,0.00004854,-0.00000350,-0.00001213,0.000007
 01,-0.00000104,-0.00000929,0.00000301,-0.00062440,0.00053586,-0.000481
 97,-0.00041115,0.00034617,0.00061921,-0.00193911,0.00060387,0.00079797
 ,0.00135396,0.00143226,0.00495089,0.05131460,0.10338999,0.25904852,-0.
 00000403,0.00000221,-0.00000158,-0.00001747,-0.00004927,0.00008064,0.0
 0001043,0.00003605,0.00002765,0.00003924,0.00002058,-0.00001657,-0.000
 04928,-0.00007626,-0.00002255,0.00000817,0.00005211,-0.00008606,-0.000
 06478,0.00001419,0.00000064,0.00028778,0.00052899,0.00028761,-0.000075
 15,-0.00045251,-0.00020326,-0.00005162,-0.00015553,-0.00002558,-0.0000
 7315,-0.00015270,-0.00006456,-0.00095158,0.00126815,-0.00043541,0.0005
 2374,0.00055064,-0.00000913,0.00086126,-0.00143478,-0.00004172,-0.0039
 8826,-0.02607631,0.00526365,0.00025283,-0.00015821,0.00011553,-0.00001
 081,0.00002015,-0.00002077,-0.04916245,-0.02223828,0.00416797,0.000648
 93,0.03106654,-0.00633522,-0.00000839,-0.00000685,-0.00000445,-0.00002
 015,-0.00001158,0.00001327,-0.00000506,0.00000925,0.00000032,-0.000048
 28,-0.00003293,-0.00006481,0.00003971,-0.00001643,0.00002027,0.0000066
 5,0.00000788,-0.00000289,-0.00000947,-0.00000328,-0.00000440,-0.000158
 38,0.00014742,0.00014233,0.00028262,0.00016725,-0.00006696,-0.00012860
 ,-0.00000409,-0.00004749,-0.00376594,-0.00030602,0.00365056,0.00093656
 ,0.00075350,-0.00040957,0.05818285,0.00000345,0.00000683,0.00001847,0.
 00003880,0.00002588,-0.00003903,-0.00000054,-0.00008116,-0.00002125,0.
 00004248,-0.00009800,-0.00003092,-0.00003896,-0.00003522,-0.00005231,0
 .00001594,0.00002589,-0.00000624,-0.00000456,-0.00000630,-0.00001230,-
 0.00016200,0.00013433,0.00019316,0.00001176,-0.00005660,-0.00012957,0.
 00006690,-0.00007516,-0.00001747,0.00005524,0.00001197,-0.00009512,-0.
 00014984,0.00037531,0.00027781,0.00127285,0.00053516,-0.00050579,0.000
 36762,-0.00105225,0.00055146,-0.00235215,-0.00450408,0.00140112,0.0002
 1763,-0.00012414,-0.00036509,-0.00002266,0.00002405,-0.00001257,-0.022
 52989,-0.28928200,0.04741541,0.00026362,-0.01080629,0.00211770,-0.0000
 0124,0.00000151,-0.00000739,0.00001129,0.00000874,-0.00000311,-0.00000
 325,-0.00001149,-0.00000052,0.00002419,0.00002074,0.00003646,-0.000081
 39,-0.00008939,-0.00002703,-0.00000191,0.00000208,0.00000192,0.0000001
 7,0.00000574,0.00001228,-0.00002601,0.00002994,0.00005370,-0.00018416,
 0.00011357,-0.00005568,-0.00009382,-0.00004714,0.00004137,-0.00020990,
 0.00137907,0.00081237,-0.00018668,0.00058774,0.00043619,0.02262995,0.3
 1611886,-0.00000243,0.00000618,-0.00000658,-0.00004749,-0.00004400,0.0
 0007240,-0.00000382,0.00007860,-0.00002383,-0.00010243,-0.00000756,0.0
 0015142,0.00008021,-0.00004717,0.00004840,0.00000770,0.00003067,-0.000
 08048,-0.00003150,0.00002922,-0.00006146,0.00030459,0.00002814,0.00026
 070,-0.00006011,-0.00017681,-0.00013646,-0.00008777,0.00000989,-0.0000
 5681,-0.00010288,0.00002947,-0.00006445,0.00002138,0.00009510,0.001177
 22,-0.00063833,-0.00035443,-0.00015616,-0.00065019,0.00032758,0.000410
 69,0.00345894,0.02274108,-0.00526898,0.00019683,-0.00028835,-0.0006003
 1,-0.00002081,0.00000435,0.00002045,0.00409665,0.04663409,-0.05926353,
 0.00014474,0.01203033,-0.00277198,-0.00000141,-0.00000345,-0.00000021,
 0.00001791,-0.00000010,-0.00000287,0.00000748,0.00000614,-0.00000494,-
 0.00004980,-0.00002906,-0.00001969,0.00006144,-0.00014365,-0.00022681,
 0.00000456,0.00001266,-0.00000957,-0.00000179,0.00001480,-0.00000359,0
 .00025051,-0.00002637,-0.00004639,-0.00016647,-0.00005906,-0.00002664,
 0.00008357,-0.00013679,0.00000812,0.00355794,0.00080006,-0.00225380,-0
 .00085012,0.00004619,0.00062069,-0.00575940,-0.05456647,0.06203133,-0.
 00000174,-0.00000333,-0.00000760,0.00002313,0.00000515,-0.00001026,-0.
 00002908,0.00000590,-0.00003240,-0.00000053,-0.00001843,0.00001103,0.0
 0000217,0.00000194,-0.00001864,0.00000416,-0.00000667,0.00001266,0.000
 00608,0.00000091,0.00000954,-0.00005700,-0.00001489,0.00006761,0.00000
 367,-0.00002753,-0.00003857,0.00001933,-0.00000800,-0.00001024,0.00001
 683,0.00002055,-0.00004719,-0.00001833,0.00010739,0.00025402,-0.000182
 88,0.00011670,-0.00029521,0.00194164,0.00037871,0.00096716,0.00338154,
 0.01242038,0.02347736,-0.00001592,-0.00008275,-0.00016213,0.00000223,0
 .00000359,-0.00000618,-0.05894483,-0.02597007,-0.04701406,-0.00878261,
 -0.01380284,-0.02643643,0.00000273,0.00000533,0.00000542,-0.00000409,0
 .00000281,-0.00000398,0.00000094,-0.00000416,0.00000241,0.00002037,0.0
 0002015,0.00001614,-0.00002850,-0.00000401,0.00001183,0.00000046,-0.00
 000233,-0.00000058,0.00000122,-0.00000513,0.00000175,0.00004874,-0.000
 09827,0.00006409,0.00026420,-0.00022528,-0.00017800,-0.00023584,-0.000
 12787,-0.00060067,0.00096302,-0.00004808,-0.00088560,-0.00373794,-0.00
 058225,0.00374943,-0.00083133,-0.00149668,-0.00241870,0.06899181,0.000
 00418,-0.00000365,0.00000495,0.00004245,0.00004181,-0.00005627,0.00002
 263,-0.00007045,0.00000065,0.00004156,-0.00001847,-0.00008665,-0.00003
 641,0.00003570,-0.00002685,-0.00000113,-0.00001664,0.00004910,0.000023
 69,-0.00001477,0.00003460,-0.00030355,-0.00010306,-0.00024226,0.000104
 35,0.00029761,0.00025352,0.00007462,0.00003860,0.00005075,0.00008917,0
 .00000756,0.00006169,-0.00010179,-0.00051830,-0.00166020,0.00076165,-0
 .00035069,0.00066935,-0.00012707,0.00020573,-0.00048859,0.00106832,0.0
 0215196,0.00499838,-0.00034423,0.00059646,0.00087863,0.00000796,-0.000
 02623,-0.00002013,-0.02594944,-0.10413503,-0.10036676,0.00338536,0.005
 60203,0.01122147,0.00000057,0.00000241,0.00000083,-0.00000948,0.000002
 65,-0.00000017,-0.00000528,-0.00000570,0.00000208,0.00003066,0.0000195
 8,0.00002211,-0.00004768,0.00005177,0.00010848,-0.00000356,-0.00001139
 ,0.00000584,0.00000118,-0.00001135,0.00000199,-0.00017742,-0.00001530,
 0.00001891,0.00014796,-0.00004788,0.00015762,0.00035364,0.00000672,-0.
 00006589,0.00072490,0.00071880,0.00012609,-0.00073617,0.00118254,0.001
 24627,-0.00722054,-0.01529443,-0.02768327,0.02719456,0.10834267,-0.000
 00128,-0.00000237,-0.00000271,0.00000966,0.00000089,-0.00000029,-0.000
 01765,0.00000013,-0.00000073,0.00002397,0.00001008,-0.00003048,-0.0000
 0860,-0.00000065,0.00002585,0.00000629,-0.00000401,0.00000868,-0.00000
 054,-0.00000285,0.00000501,-0.00005859,0.00000865,-0.00016406,0.000025
 98,0.00008164,0.00012740,0.00002056,0.00000147,0.00003706,0.00002055,-
 0.00003528,0.00008575,0.00000627,-0.00020412,-0.00077002,0.00024402,-0
 .00014240,0.00037102,-0.00122724,0.00024084,0.00066653,-0.00288848,-0.
 01062361,-0.02132672,-0.00017048,0.00033982,0.00037993,-0.00000272,-0.
 00001156,-0.00000981,-0.04647274,-0.09958612,-0.23278907,-0.00349776,-
 0.00464659,-0.00948409,0.00000215,0.00000272,0.00000262,-0.00000257,0.
 00000243,-0.00000180,-0.00000003,-0.00000338,0.00000136,0.00001329,0.0
 0000844,0.00000023,-0.00000627,0.00002409,-0.00000466,-0.00000023,-0.0
 0000360,0.00000082,-0.00000038,-0.00000391,0.00000132,-0.00012995,0.00
 010031,-0.00008850,-0.00001939,0.00023760,0.00035321,0.00086240,-0.000
 22905,0.00055819,-0.00049400,0.00047838,0.00062841,0.00355207,0.001121
 07,-0.00187830,0.00142182,0.00194874,0.00580163,0.05043063,0.10937512,
 0.25617404,0.00000380,0.00000109,0.00000972,0.00001032,0.00000994,-0.0
 0001602,-0.00000548,-0.00001529,0.00003531,0.00005230,0.00003259,-0.00
 006197,-0.00003105,-0.00000271,0.00001929,0.00000029,-0.00000866,0.000
 01561,0.00000355,-0.00000927,0.00000981,-0.00003832,-0.00001935,-0.000
 13366,0.00001732,0.00007674,0.00007441,0.00000956,0.00000800,0.0000247
 5,0.00001748,-0.00001752,0.00006137,0.00002269,-0.00015457,-0.00033134
 ,0.00001537,-0.00003579,0.00014978,-0.00003755,0.00033343,0.00010704,0
 .00178310,-0.00097869,-0.00147322,-0.00008406,0.00014468,0.00019263,0.
 00000282,-0.00000463,-0.00000227,-0.00844059,-0.01454219,-0.02565977,-
 0.06214938,-0.02939870,-0.05225309,-0.00000160,-0.00000626,-0.00000709
 ,-0.00000335,-0.00000293,0.00000718,-0.00000539,0.00000213,-0.00000131
 ,0.00002655,-0.00000720,-0.00001234,-0.00003388,0.00003916,0.00001529,
 -0.00000230,-0.00000374,0.00000321,0.00000027,-0.00000202,0.00000057,-
 0.00005929,0.00001300,-0.00003436,-0.00000203,0.00003163,0.00009068,0.
 00021972,-0.00001682,0.00017017,-0.00010936,-0.00000815,0.00005733,-0.
 00021398,0.00027525,0.00091367,0.00132051,0.00001233,0.00064548,-0.005
 03245,0.00245723,-0.00178656,0.06761127,-0.00000218,-0.00000026,-0.000
 00787,-0.00002982,-0.00001198,0.00002437,0.00001640,0.00001938,0.00001
 663,-0.00000514,0.00000532,0.00001731,0.00000501,-0.00000117,0.0000149
 7,0.00000009,0.00001105,-0.00001692,-0.00000918,0.00000391,-0.00000822
 ,0.00011148,0.00000544,-0.00002693,-0.00002659,-0.00002872,-0.00000584
 ,-0.00003552,0.00001191,0.00000125,-0.00003491,-0.00001300,0.00003035,
 0.00003164,0.00003314,0.00005722,-0.00008078,-0.00003550,-0.00002689,-
 0.00003555,0.00008122,0.00029534,-0.00043105,0.00015161,0.00013323,-0.
 00000083,-0.00003382,-0.00002587,0.00000670,-0.00000101,0.00000241,0.0
 0316273,0.00593487,0.01107200,-0.02995950,-0.10392358,-0.10185618,-0.0
 0000097,-0.00000279,0.00000186,-0.00000083,-0.00000312,0.00000233,0.00
 000191,0.00000526,-0.00000130,-0.00002784,-0.00005043,-0.00002155,0.00
 003009,-0.00002124,-0.00002838,0.00000177,0.00000079,-0.00000301,-0.00
 000175,0.00000202,-0.00000413,0.00001768,0.00000276,-0.00001063,-0.000
 06821,0.00000126,-0.00004056,0.00005031,-0.00005288,-0.00004422,0.0000
 0178,-0.00005577,-0.00013737,-0.00031420,0.00012559,-0.00007543,-0.000
 75358,0.00077582,0.00020694,0.00266807,0.00026989,0.00110908,0.0308625
 2,0.10928167,-0.00000420,-0.00001134,-0.00001898,0.00006240,0.00000966
 ,-0.00002786,-0.00012071,0.00001186,-0.00010705,0.00002880,0.00001217,
 -0.00003076,0.00002364,0.00001722,0.00001614,0.00002235,-0.00003720,0.
 00005752,0.00002699,-0.00000910,0.00002803,-0.00034155,-0.00024888,-0.
 00018357,0.00008145,0.00031956,0.00012120,0.00008787,0.00005715,0.0000
 3229,0.00010193,0.00008314,0.00003203,0.00006085,-0.00044622,-0.000091
 14,-0.00005637,0.00015207,-0.00002110,0.00008941,0.00007273,0.00032596
 ,0.00096290,0.00016415,0.00064347,-0.00008705,0.00021896,0.00012049,-0
 .00000167,0.00000112,-0.00000382,-0.00338228,-0.00513442,-0.01097546,-
 0.05298188,-0.10154312,-0.23099921,0.00001139,0.00001705,0.00001450,-0
 .00000211,0.00001053,-0.00001328,0.00000442,-0.00001377,0.00000792,0.0
 0009094,0.00006459,0.00007708,-0.00007499,0.00002619,0.00002204,-0.000
 00400,-0.00001005,0.00000437,0.00000696,-0.00001069,0.00000670,-0.0000
 4129,-0.00005084,-0.00004488,-0.00008603,0.00005600,0.00002303,0.00023
 860,-0.00006613,-0.00001659,-0.00001682,0.00001736,0.00001030,-0.00059
 810,0.00001242,0.00074467,0.00023259,0.00037650,0.00010134,-0.00211541
 ,0.00158199,0.00056482,0.06117853,0.11211847,0.25185470,0.00000143,0.0
 0000095,0.00000259,-0.00001441,0.00000209,-0.00000260,0.00001207,-0.00
 000208,-0.00004089,-0.00003135,0.00000133,0.00000912,0.00004519,0.0000
 2382,0.00000677,0.00001385,-0.00001808,0.00002339,0.00002049,-0.000000
 83,-0.00001014,-0.00030012,-0.00036863,-0.00006629,0.00005257,0.000405
 77,0.00000499,0.00005061,0.00011626,-0.00000444,0.00008376,0.00016766,
 -0.00002658,0.00011373,-0.00049954,0.00083743,-0.00005126,0.00047803,-
 0.00047365,-0.00077681,-0.00103223,0.00174734,-0.00413305,0.00307417,-
 0.00444639,0.00000561,0.00007691,-0.00038616,-0.00000565,0.00001753,0.
 00002307,-0.02058869,-0.00506783,0.02006221,-0.18415027,-0.02917369,0.
 12633467,0.00000527,0.00000497,0.00000318,0.00002201,0.00000931,-0.000
 01272,0.00000732,-0.00000581,-0.00000125,0.00001445,0.00000929,0.00003
 121,-0.00001987,-0.00000723,-0.00001149,-0.00000613,-0.00000256,0.0000
 0463,0.00000526,0.00000700,0.00000034,0.00001657,-0.00007045,-0.000069
 53,-0.00066495,0.00026879,-0.00017480,0.00005701,-0.00002640,0.0000127
 5,0.00028322,-0.00006393,-0.00023906,0.00024843,0.00016249,0.00002181,
 0.00121967,0.00036724,0.00017508,0.00087650,-0.00076985,-0.00021342,0.
 00653002,0.00213460,-0.00534009,0.20249179,0.00000126,-0.00000020,-0.0
 0000657,-0.00001008,-0.00001076,0.00001674,0.00000342,0.00001736,0.000
 04465,0.00003666,0.00001955,-0.00001425,-0.00002652,-0.00000566,0.0000
 0876,-0.00000610,0.00000755,-0.00001393,-0.00001054,-0.00000519,0.0000
 0670,0.00016893,0.00007497,-0.00001065,-0.00003165,-0.00009339,-0.0000
 1494,-0.00004791,-0.00000727,-0.00000094,-0.00004555,-0.00004329,0.000
 02769,-0.00001653,0.00012316,-0.00008868,-0.00015781,0.00000625,0.0000
 0459,0.00063939,0.00068535,-0.00036569,0.00170022,-0.00068233,0.001315
 57,-0.00001757,-0.00004105,0.00003915,0.00001243,-0.00000366,0.0000009
 4,0.00887950,0.00090052,-0.00905390,-0.02981103,-0.05340966,0.02703613
 ,-0.00000433,-0.00000911,-0.00000514,-0.00001516,-0.00001627,0.0000163
 8,-0.00000573,0.00001353,0.00000088,-0.00001320,-0.00002445,-0.0000476
 9,0.00000502,0.00000366,-0.00000629,0.00000095,0.00000047,-0.00000102,
 -0.00000146,0.00000021,-0.00000364,0.00000061,0.00001654,0.00000766,0.
 00024168,-0.00011556,0.00007552,0.00001623,-0.00000142,-0.00000252,0.0
 0033656,0.00036294,-0.00013867,-0.00020022,-0.00005070,0.00031415,-0.0
 0039085,0.00031148,-0.00058320,-0.00060414,0.00026872,0.00010053,0.012
 22476,0.00211236,-0.01031079,0.03067062,0.05371608,0.00000384,0.000005
 65,0.00000816,0.00002312,0.00000417,-0.00000482,0.00000747,-0.00000855
 ,0.00006700,0.00004574,0.00001855,-0.00003056,-0.00005446,-0.00001416,
 0.00000110,-0.00000945,0.00000834,-0.00001398,-0.00001669,-0.00000665,
 0.00000408,0.00014482,0.00014882,-0.00000294,-0.00003320,-0.00013765,-
 0.00002638,-0.00003096,-0.00004299,0.00000497,-0.00003613,-0.00006660,
 0.00003219,-0.00002480,0.00020338,-0.00007417,0.00009840,-0.00014452,0
 .00005838,-0.00070018,0.00017924,0.00062488,-0.00164666,0.00075504,-0.
 00062726,0.00002412,-0.00007167,0.00000711,0.00000050,0.00000100,-0.00
 000223,-0.01063827,-0.00250764,0.00908587,0.12782380,0.02673638,-0.164
 15553,-0.00000545,-0.00001590,-0.00001748,-0.00000910,-0.00001163,0.00
 002514,-0.00001165,0.00001054,-0.00000149,0.00000130,-0.00001734,-0.00
 005323,-0.00000656,0.00001745,0.00000563,-0.00000002,0.00000193,0.0000
 0079,-0.00000144,-0.00000104,-0.00000018,-0.00002653,0.00002706,0.0000
 0288,-0.00020687,0.00006103,-0.00005393,0.00011123,-0.00005271,0.00001
 708,-0.00005362,-0.00005857,-0.00012207,-0.00021110,0.00023011,0.00035
 907,0.00071059,-0.00043244,0.00042658,0.00060649,-0.00034395,0.0007350
 0,0.01968331,0.00509316,-0.01822402,-0.13857413,-0.03035483,0.17601333
 ,-0.00000365,-0.00000374,-0.00000230,-0.00000140,-0.00000237,-0.000002
 30,-0.00004647,0.00001185,-0.00004690,-0.00001230,0.00001344,0.0000067
 2,0.00003581,0.00000703,0.00002487,0.00000669,-0.00001610,0.00002035,0
 .00001136,0.00000060,0.00000062,-0.00006669,-0.00011305,-0.00007774,0.
 00002403,0.00008314,0.00006178,0.00001695,0.00002815,0.00000900,0.0000
 1887,0.00002484,0.00002031,0.00015613,-0.00025624,-0.00000694,-0.00030
 722,-0.00014481,0.00014356,0.00010030,0.00011853,-0.00027750,0.0022229
 4,0.00106194,-0.00048023,-0.00007025,0.00004755,0.00005720,0.00000227,
 -0.00000680,0.00000333,0.00091610,0.03048214,-0.00508849,-0.04808441,-
 0.01613301,0.00331360,0.00000632,0.00000904,0.00000751,0.00000938,0.00
 000999,-0.00001401,0.00000663,-0.00000855,0.00000077,0.00002541,0.0000
 2439,0.00003720,-0.00001330,-0.00000381,-0.00002498,-0.00000021,-0.000
 00234,-0.00000013,0.00000251,-0.00000044,0.00000200,0.00000483,-0.0000
 3109,-0.00002409,0.00001995,-0.00002858,0.00001415,0.00002269,0.000013
 27,-0.00001337,-0.00025143,-0.00070146,0.00026492,-0.00009946,-0.00004
 735,0.00008800,-0.00519678,0.00214417,-0.00211958,0.00133230,-0.000703
 05,0.00035921,-0.00139688,-0.00728435,0.00194253,-0.00143428,-0.023521
 87,0.00301255,0.05204327,0.00000023,0.00000270,0.00001025,0.00005006,0
 .00001748,-0.00003441,-0.00002566,-0.00003536,-0.00002708,0.00001154,-
 0.00002168,-0.00002456,-0.00001276,-0.00000689,-0.00002615,0.00000135,
 -0.00000745,0.00001797,0.00000832,-0.00000225,0.00000516,-0.00018745,0
 .00008292,0.00005503,0.00005533,-0.00001727,-0.00002726,0.00007199,-0.
 00006163,0.00000521,0.00005814,-0.00001101,-0.00004222,-0.00017707,0.0
 0013062,0.00005315,0.00001312,0.00022571,-0.00008685,0.00026354,0.0001
 6111,0.00000791,-0.00108077,0.00047031,-0.00005616,0.00009897,-0.00004
 345,-0.00002533,-0.00001776,0.00001021,-0.00001098,0.00002429,-0.01139
 956,0.00234016,-0.01515860,-0.29438331,0.04562711,0.00000193,0.0000068
 0,-0.00000078,0.00000287,0.00000886,-0.00000682,-0.00000117,-0.0000131
 6,0.00000233,0.00003569,0.00003659,0.00003598,-0.00003442,0.00002869,0
 .00004460,-0.00000167,-0.00000020,0.00000369,0.00000079,-0.00000406,0.
 00000784,-0.00004076,0.00001854,0.00002179,0.00008889,-0.00004199,-0.0
 0001314,-0.00004430,-0.00001975,-0.00000071,0.00075335,0.00037842,-0.0
 0041451,0.00004701,-0.00009782,-0.00003210,0.00226512,0.00106893,0.001
 01826,0.00018059,0.00080013,0.00030750,-0.00128999,-0.01460001,0.00249
 165,-0.00088968,-0.00412073,0.00078699,0.01492894,0.32143956,-0.000000
 86,-0.00000485,-0.00001052,0.00001612,-0.00000280,-0.00000053,-0.00005
 476,0.00002022,-0.00002592,0.00002206,0.00001986,-0.00001268,0.0000075
 5,0.00000705,0.00001691,0.00000737,-0.00001609,0.00001843,0.00000728,-
 0.00000651,0.00001292,-0.00004774,-0.00011967,-0.00006916,0.00000562,0
 .00010580,0.00002931,0.00000467,0.00003909,0.00000487,0.00001702,0.000
 03548,0.00001694,0.00010927,-0.00017999,0.00012329,-0.00013086,0.00001
 919,-0.00007589,0.00007061,-0.00001378,-0.00010110,0.00056577,-0.00069
 044,0.00018618,-0.00005083,0.00003189,-0.00003127,0.00000634,0.0000001
 2,0.00000664,0.00050838,0.01270657,-0.00298332,0.00315635,0.04528333,-
 0.05614377,0.00000339,0.00000215,0.00000263,-0.00000486,-0.00000305,0.
 00000254,-0.00000021,0.00000191,0.00000334,0.00003319,0.00002035,0.000
 00827,-0.00003037,0.00000972,-0.00000694,-0.00000181,-0.00000328,0.000
 00166,0.00000353,-0.00000244,0.00000060,0.00000772,-0.00003394,-0.0000
 2082,-0.00000140,0.00000865,0.00000718,-0.00002501,0.00002039,-0.00002
 108,-0.00011446,-0.00012607,0.00038308,-0.00005964,-0.00012325,0.00002
 424,-0.00251305,0.00068563,-0.00004546,0.00059429,0.00017059,0.0000224
 0,-0.00169215,-0.02785564,0.00594913,0.00079308,0.02200731,-0.00406897
 ,-0.00121161,-0.05201351,0.05679687\\0.00000145,-0.00000333,-0.0000017
 4,0.00000002,0.00000043,-0.00000101,-0.00000022,-0.00000067,0.00000100
 ,0.00000146,-0.00000053,-0.00000071,0.00000028,0.00000067,-0.00000036,
 0.00000057,-0.00000062,-0.00000091,0.00000199,-0.00000093,0.00000015,-
 0.00000052,0.00000035,-0.00000338,0.00000162,0.00000332,0.00000097,0.0
 0000093,0.00000147,-0.00000150,0.00000007,0.00000087,-0.00000085,0.000
 00022,-0.00000174,-0.00000111,-0.00000084,0.00000203,-0.00000102,-0.00
 000017,-0.00000020,0.00000008,-0.00000142,0.00000064,0.00000042,0.0000
 0042,-0.00000002,0.00000063,0.00000032,0.00000020,-0.00000101,-0.00000
 032,-0.00000002,0.00000133,-0.00000175,-0.00000040,0.00000113,0.000000
 36,-0.00000076,0.00000114,0.00000130,-0.00000077,0.00000099,0.00000145
 ,-0.00000110,0.00000070,0.00000018,-0.00000060,-0.00000041,-0.00000018
 ,0.00000062,-0.00000012,0.00000127,-0.00000029,-0.00000127,0.00000160,
 -0.00000132,-0.00000114,-0.00000069,0.00000131,-0.00000032,-0.00000104
 ,0.00000149,0.00000008,-0.00000092,0.00000037,0.00000016,-0.00000134,0
 .00000049,0.00000118,-0.00000137,0.00000083,0.00000064,-0.00000030,-0.
 00000028,0.00000028,-0.00000093,-0.00000042,0.00000114,-0.00000133,-0.
 00000029,0.00000161,-0.00000081,-0.00000053,0.00000171,-0.00000137,-0.
 00000026,0.00000152\\\@


 OF ALL THE WONDERS OF THE UNIVERSE, THE GREATEST IS MAN.

                                    -- ARISTOTLE
 Job cpu time:       0 days 12 hours 59 minutes 57.1 seconds.
 File lengths (MBytes):  RWF=   1442 Int=      0 D2E=      0 Chk=     39 Scr=      1
 Normal termination of Gaussian 09 at Thu Sep 21 20:15:30 2017.
