 Entering Gaussian System, Link 0=/usr/local/gaussian/2009-E.01/g09/g09
 Initial command:
 /usr/local/gaussian/2009-E.01/g09/l1.exe "/scratch/pbs.8312963.achilles/Gau-157978.inp" -scrdir="/scratch/pbs.8312963.achilles/"
 Entering Link 1 = /usr/local/gaussian/2009-E.01/g09/l1.exe PID=    157995.
  
 Copyright (c) 1988,1990,1992,1993,1995,1998,2003,2009,2015,
            Gaussian, Inc.  All Rights Reserved.
  
 This is part of the Gaussian(R) 09 program.  It is based on
 the Gaussian(R) 03 system (copyright 2003, Gaussian, Inc.),
 the Gaussian(R) 98 system (copyright 1998, Gaussian, Inc.),
 the Gaussian(R) 94 system (copyright 1995, Gaussian, Inc.),
 the Gaussian 92(TM) system (copyright 1992, Gaussian, Inc.),
 the Gaussian 90(TM) system (copyright 1990, Gaussian, Inc.),
 the Gaussian 88(TM) system (copyright 1988, Gaussian, Inc.),
 the Gaussian 86(TM) system (copyright 1986, Carnegie Mellon
 University), and the Gaussian 82(TM) system (copyright 1983,
 Carnegie Mellon University). Gaussian is a federally registered
 trademark of Gaussian, Inc.
  
 This software contains proprietary and confidential information,
 including trade secrets, belonging to Gaussian, Inc.
  
 This software is provided under written license and may be
 used, copied, transmitted, or stored only in accord with that
 written license.
  
 The following legend is applicable only to US Government
 contracts under FAR:
  
                    RESTRICTED RIGHTS LEGEND
  
 Use, reproduction and disclosure by the US Government is
 subject to restrictions as set forth in subparagraphs (a)
 and (c) of the Commercial Computer Software - Restricted
 Rights clause in FAR 52.227-19.
  
 Gaussian, Inc.
 340 Quinnipiac St., Bldg. 40, Wallingford CT 06492
  
  
 ---------------------------------------------------------------
 Warning -- This program may not be used in any manner that
 competes with the business of Gaussian, Inc. or will provide
 assistance to any competitor of Gaussian, Inc.  The licensee
 of this program is prohibited from giving any competitor of
 Gaussian, Inc. access to this program.  By using this program,
 the user acknowledges that Gaussian, Inc. is engaged in the
 business of creating and licensing software in the field of
 computational chemistry and represents and warrants to the
 licensee that it is not a competitor of Gaussian, Inc. and that
 it will not use this program in any manner prohibited above.
 ---------------------------------------------------------------
  

 Cite this work as:
 Gaussian 09, Revision E.01,
 M. J. Frisch, G. W. Trucks, H. B. Schlegel, G. E. Scuseria, 
 M. A. Robb, J. R. Cheeseman, G. Scalmani, V. Barone, B. Mennucci, 
 G. A. Petersson, H. Nakatsuji, M. Caricato, X. Li, H. P. Hratchian, 
 A. F. Izmaylov, J. Bloino, G. Zheng, J. L. Sonnenberg, M. Hada, 
 M. Ehara, K. Toyota, R. Fukuda, J. Hasegawa, M. Ishida, T. Nakajima, 
 Y. Honda, O. Kitao, H. Nakai, T. Vreven, J. A. Montgomery, Jr., 
 J. E. Peralta, F. Ogliaro, M. Bearpark, J. J. Heyd, E. Brothers, 
 K. N. Kudin, V. N. Staroverov, T. Keith, R. Kobayashi, J. Normand, 
 K. Raghavachari, A. Rendell, J. C. Burant, S. S. Iyengar, J. Tomasi, 
 M. Cossi, N. Rega, J. M. Millam, M. Klene, J. E. Knox, J. B. Cross, 
 V. Bakken, C. Adamo, J. Jaramillo, R. Gomperts, R. E. Stratmann, 
 O. Yazyev, A. J. Austin, R. Cammi, C. Pomelli, J. W. Ochterski, 
 R. L. Martin, K. Morokuma, V. G. Zakrzewski, G. A. Voth, 
 P. Salvador, J. J. Dannenberg, S. Dapprich, A. D. Daniels, 
 O. Farkas, J. B. Foresman, J. V. Ortiz, J. Cioslowski, 
 and D. J. Fox, Gaussian, Inc., Wallingford CT, 2013.
 
 ******************************************
 Gaussian 09:  ES64L-G09RevE.01 30-Nov-2015
                28-Feb-2019 
 ******************************************
 Default route:  MAXDISK=1700GB
 ---------------
 # freq hf/3-21g
 ---------------
 1/10=4,30=1,38=1/1,3;
 2/12=2,17=6,18=5,40=1/2;
 3/5=5,11=9,16=1,25=1,30=1,71=2,140=1/1,2,3;
 4//1;
 5/5=2,38=5,98=1/2;
 8/6=4,10=90,11=11/1;
 10/13=10,15=4/2;
 11/6=3,8=1,9=11,15=111,16=1/1,2,10;
 10/6=1/2;
 6/7=2,8=2,9=2,10=2,18=1,28=1/1;
 7/8=1,10=1,25=1/1,2,3,16;
 1/10=4,30=1/3;
 99//99;
 -----
 AcOEt
 -----
 Symbolic Z-matrix:
 Charge =  0 Multiplicity = 1
 C                    -0.51991  -1.75007  0. 
 H                    -0.16325  -2.75888   0.00196 
 H                    -0.16324  -1.24737  -0.87463 
 H                    -0.16323  -1.24397   0.87267 
 C                    -4.11322  -0.2981    0. 
 H                    -4.46989  -0.8025    0.87365 
 H                    -4.46989  -0.8025   -0.87365 
 C                    -2.05991  -1.75005   0. 
 O                    -2.7834   -2.77967  0. 
 O                    -2.57322  -0.29812   0. 
 C                    -4.62654   1.15383  0. 
 H                    -5.69653   1.15385  -0.00196 
 H                    -4.27146   1.65767   0.87462 
 H                    -4.26827   1.65879  -0.87268 
 

 GradGradGradGradGradGradGradGradGradGradGradGradGradGradGradGradGradGrad
 Berny optimization.
 Initialization pass.
 Trust Radius=3.00D-01 FncErr=1.00D-07 GrdErr=1.00D-07
 Number of steps in this run=      2 maximum allowed number of steps=      2.
 GradGradGradGradGradGradGradGradGradGradGradGradGradGradGradGradGradGrad

                          Input orientation:                          
 ---------------------------------------------------------------------
 Center     Atomic      Atomic             Coordinates (Angstroms)
 Number     Number       Type             X           Y           Z
 ---------------------------------------------------------------------
      1          6           0       -0.519906   -1.750068   -0.000004
      2          1           0       -0.163252   -2.758877    0.001955
      3          1           0       -0.163236   -1.247368   -0.874634
      4          1           0       -0.163231   -1.243974    0.872666
      5          6           0       -4.113222   -0.298098    0.000000
      6          1           0       -4.469894   -0.802495    0.873652
      7          1           0       -4.469895   -0.802498   -0.873650
      8          6           0       -2.059906   -1.750049    0.000000
      9          8           0       -2.783401   -2.779674   -0.000005
     10          8           0       -2.573222   -0.298117    0.000000
     11          6           0       -4.626537    1.153834   -0.000003
     12          1           0       -5.696535    1.153847   -0.001960
     13          1           0       -4.271463    1.657670    0.874624
     14          1           0       -4.268267    1.658795   -0.872675
 ---------------------------------------------------------------------
                    Distance matrix (angstroms):
                    1          2          3          4          5
     1  C    0.000000
     2  H    1.070000   0.000000
     3  H    1.070000   1.747303   0.000000
     4  H    1.070000   1.747303   1.747303   0.000000
     5  C    3.875582   4.653783   4.155537   4.154354   0.000000
     6  H    4.154946   4.809829   4.669232   4.329232   1.070000
     7  H    4.154944   4.810538   4.329576   4.668177   1.070000
     8  C    1.540000   2.148263   2.148263   2.148263   2.514810
     9  O    2.486663   2.620232   3.158829   3.159939   2.815429
    10  O    2.514810   3.444313   2.733879   2.732077   1.540000
    11  C    5.029619   5.935505   5.143132   5.141219   1.540000
    12  H    5.935504   6.776919   6.094653   6.093600   2.148262
    13  H    5.143135   6.094656   5.326977   5.029624   2.148264
    14  H    5.141217   6.093599   5.029619   5.321993   2.148263
                    6          7          8          9         10
     6  H    0.000000
     7  H    1.747303   0.000000
     8  C    2.732978   2.732977   0.000000
     9  O    2.741673   2.741668   1.258400   0.000000
    10  O    2.148263   2.148263   1.540000   2.490441   0.000000
    11  C    2.148263   2.148263   3.875582   4.343919   2.514809
    12  H    2.469538   2.468152   4.653782   4.894787   3.444312
    13  H    2.468155   3.024610   4.155539   4.761232   2.733879
    14  H    3.024610   2.469538   4.154352   4.760923   2.732077
                   11         12         13         14
    11  C    0.000000
    12  H    1.070000   0.000000
    13  H    1.070000   1.747303   0.000000
    14  H    1.070000   1.747303   1.747303   0.000000
 Stoichiometry    C4H8O2
 Framework group  C1[X(C4H8O2)]
 Deg. of freedom    36
 Full point group                 C1      NOp   1
 Largest Abelian subgroup         C1      NOp   1
 Largest concise Abelian subgroup C1      NOp   1
                         Standard orientation:                         
 ---------------------------------------------------------------------
 Center     Atomic      Atomic             Coordinates (Angstroms)
 Number     Number       Type             X           Y           Z
 ---------------------------------------------------------------------
      1          6           0        2.278632   -0.862744    0.000002
      2          1           0        3.212645   -0.340712   -0.001957
      3          1           0        2.214503   -1.475776    0.874632
      4          1           0        2.212265   -1.478328   -0.872668
      5          6           0       -1.378572    0.419829   -0.000002
      6          1           0       -1.313323    1.034137   -0.873654
      7          1           0       -1.313322    1.034140    0.873648
      8          6           0        1.122171    0.154211   -0.000002
      9          8           0        1.258802    1.405172    0.000003
     10          8           0       -0.222110   -0.597126   -0.000002
     11          6           0       -2.722853   -0.331509    0.000001
     12          1           0       -3.526366    0.375076    0.001958
     13          1           0       -2.788932   -0.944340   -0.874626
     14          1           0       -2.787274   -0.947295    0.872673
 ---------------------------------------------------------------------
 Rotational constants (GHZ):      8.0348841      1.8587454      1.5523386
 Standard basis: 3-21G (6D, 7F)
 There are    70 symmetry adapted cartesian basis functions of A   symmetry.
 There are    70 symmetry adapted basis functions of A   symmetry.
    70 basis functions,   114 primitive gaussians,    70 cartesian basis functions
    24 alpha electrons       24 beta electrons
       nuclear repulsion energy       232.8414879617 Hartrees.
 NAtoms=   14 NActive=   14 NUniq=   14 SFac= 1.00D+00 NAtFMM=   60 NAOKFM=F Big=F
 Integral buffers will be    131072 words long.
 Raffenetti 1 integral format.
 Two-electron integral symmetry is turned on.
 One-electron integrals computed using PRISM.
 NBasis=    70 RedAO= T EigKep=  1.43D-02  NBF=    70
 NBsUse=    70 1.00D-06 EigRej= -1.00D+00 NBFU=    70
 ExpMin= 1.83D-01 ExpMax= 3.22D+02 ExpMxC= 3.22D+02 IAcc=1 IRadAn=         1 AccDes= 0.00D+00
 Harris functional with IExCor=  205 and IRadAn=       1 diagonalized for initial guess.
 HarFok:  IExCor=  205 AccDes= 0.00D+00 IRadAn=         1 IDoV= 1 UseB2=F ITyADJ=14
 ICtDFT=  3500011 ScaDFX=  1.000000  1.000000  1.000000  1.000000
 FoFCou: FMM=F IPFlag=           0 FMFlag=      100000 FMFlg1=           0
         NFxFlg=           0 DoJE=T BraDBF=F KetDBF=T FulRan=T
         wScrn=  0.000000 ICntrl=     500 IOpCl=  0 I1Cent=   200000004 NGrid=           0
         NMat0=    1 NMatS0=      1 NMatT0=    0 NMatD0=    1 NMtDS0=    0 NMtDT0=    0
 Petite list used in FoFCou.
 Keep R1 ints in memory in canonical form, NReq=3951444.
 Requested convergence on RMS density matrix=1.00D-08 within 128 cycles.
 Requested convergence on MAX density matrix=1.00D-06.
 Requested convergence on             energy=1.00D-06.
 No special actions if energy rises.
 SCF Done:  E(RHF) =  -304.136843147     A.U. after   14 cycles
            NFock= 14  Conv=0.41D-08     -V/T= 2.0045
 Range of M.O.s used for correlation:     1    70
 NBasis=    70 NAE=    24 NBE=    24 NFC=     0 NFV=     0
 NROrb=     70 NOA=    24 NOB=    24 NVA=    46 NVB=    46
          Differentiating once with respect to electric field.
                with respect to dipole field.
          Electric field/nuclear overlap derivatives assumed to be zero.
 Keep R1 ints in memory in canonical form, NReq=3926742.
          There are     3 degrees of freedom in the 1st order CPHF.  IDoFFX=0 NUNeed=     3.
      3 vectors produced by pass  0 Test12= 3.68D-14 3.33D-08 XBig12= 1.29D+01 1.41D+00.
 AX will form     3 AO Fock derivatives at one time.
      3 vectors produced by pass  1 Test12= 3.68D-14 3.33D-08 XBig12= 1.61D+00 2.82D-01.
      3 vectors produced by pass  2 Test12= 3.68D-14 3.33D-08 XBig12= 1.87D-01 1.31D-01.
      3 vectors produced by pass  3 Test12= 3.68D-14 3.33D-08 XBig12= 8.24D-03 2.54D-02.
      3 vectors produced by pass  4 Test12= 3.68D-14 3.33D-08 XBig12= 1.06D-03 7.87D-03.
      3 vectors produced by pass  5 Test12= 3.68D-14 3.33D-08 XBig12= 7.59D-05 2.99D-03.
      3 vectors produced by pass  6 Test12= 3.68D-14 3.33D-08 XBig12= 1.49D-06 3.84D-04.
      3 vectors produced by pass  7 Test12= 3.68D-14 3.33D-08 XBig12= 4.26D-08 5.08D-05.
      3 vectors produced by pass  8 Test12= 3.68D-14 3.33D-08 XBig12= 2.08D-09 1.07D-05.
      2 vectors produced by pass  9 Test12= 3.68D-14 3.33D-08 XBig12= 6.47D-11 1.86D-06.
      2 vectors produced by pass 10 Test12= 3.68D-14 3.33D-08 XBig12= 8.42D-13 2.02D-07.
 InvSVY:  IOpt=1 It=  1 EMax= 8.88D-16
 Solved reduced A of dimension    31 with     3 vectors.
 End of Minotr F.D. properties file   721 does not exist.
 End of Minotr F.D. properties file   722 does not exist.
 End of Minotr F.D. properties file   788 does not exist.
 Symmetrizing basis deriv contribution to polar:
 IMax=3 JMax=2 DiffMx= 0.00D+00
 G2DrvN: will do    15 centers at a time, making    1 passes.
 PxScal for G2LodP:  IOpCl= 0 ISclPx=1 IMOff=     1 NMtTot=     4 NTT=    2485 ScalPx= 1.60D+00
 Calling FoFCou, ICntrl=  3107 FMM=F I1Cent=   0 AccDes= 0.00D+00.
 End of G2Drv F.D. properties file   721 does not exist.
 End of G2Drv F.D. properties file   722 does not exist.
 End of G2Drv F.D. properties file   788 does not exist.
          IDoAtm=11111111111111
          Differentiating once with respect to electric field.
                with respect to dipole field.
          Differentiating once with respect to nuclear coordinates.
 Keep R1 ints in memory in canonical form, NReq=3927064.
          There are    45 degrees of freedom in the 1st order CPHF.  IDoFFX=5 NUNeed=    45.
 Will reuse    3 saved solutions.
     39 vectors produced by pass  0 Test12= 2.45D-15 2.22D-09 XBig12= 7.33D-02 8.09D-02.
 AX will form    39 AO Fock derivatives at one time.
     39 vectors produced by pass  1 Test12= 2.45D-15 2.22D-09 XBig12= 3.53D-03 1.30D-02.
     39 vectors produced by pass  2 Test12= 2.45D-15 2.22D-09 XBig12= 7.46D-05 1.76D-03.
     39 vectors produced by pass  3 Test12= 2.45D-15 2.22D-09 XBig12= 5.58D-07 1.73D-04.
     39 vectors produced by pass  4 Test12= 2.45D-15 2.22D-09 XBig12= 2.79D-09 1.34D-05.
     39 vectors produced by pass  5 Test12= 2.45D-15 2.22D-09 XBig12= 1.13D-11 6.85D-07.
     22 vectors produced by pass  6 Test12= 2.45D-15 2.22D-09 XBig12= 5.15D-14 4.81D-08.
      1 vectors produced by pass  7 Test12= 2.45D-15 2.22D-09 XBig12= 2.20D-16 3.41D-09.
 InvSVY:  IOpt=1 It=  1 EMax= 2.44D-15
 Solved reduced A of dimension   257 with    39 vectors.
 Isotropic polarizability for W=    0.000000       44.86 Bohr**3.
 End of Minotr F.D. properties file   721 does not exist.
 End of Minotr F.D. properties file   722 does not exist.
 End of Minotr F.D. properties file   788 does not exist.

 **********************************************************************

            Population analysis using the SCF density.

 **********************************************************************

 Orbital symmetries:
       Occupied  (A) (A) (A) (A) (A) (A) (A) (A) (A) (A) (A) (A)
                 (A) (A) (A) (A) (A) (A) (A) (A) (A) (A) (A) (A)
       Virtual   (A) (A) (A) (A) (A) (A) (A) (A) (A) (A) (A) (A)
                 (A) (A) (A) (A) (A) (A) (A) (A) (A) (A) (A) (A)
                 (A) (A) (A) (A) (A) (A) (A) (A) (A) (A) (A) (A)
                 (A) (A) (A) (A) (A) (A) (A) (A) (A) (A)
 The electronic state is 1-A.
 Alpha  occ. eigenvalues --  -20.48631 -20.47274 -11.35309 -11.22902 -11.18918
 Alpha  occ. eigenvalues --  -11.16027  -1.40003  -1.31131  -1.03992  -1.00975
 Alpha  occ. eigenvalues --   -0.85124  -0.75365  -0.66381  -0.65794  -0.63075
 Alpha  occ. eigenvalues --   -0.61616  -0.58415  -0.56033  -0.54385  -0.52026
 Alpha  occ. eigenvalues --   -0.49969  -0.49188  -0.44147  -0.42891
 Alpha virt. eigenvalues --    0.15586   0.26220   0.28205   0.29632   0.33227
 Alpha virt. eigenvalues --    0.33376   0.34536   0.34907   0.35823   0.37743
 Alpha virt. eigenvalues --    0.37785   0.42056   0.45317   0.58210   0.90113
 Alpha virt. eigenvalues --    0.91646   0.93534   0.94440   0.97726   0.99124
 Alpha virt. eigenvalues --    1.01315   1.02815   1.04045   1.08711   1.13974
 Alpha virt. eigenvalues --    1.23805   1.27685   1.33263   1.34923   1.35492
 Alpha virt. eigenvalues --    1.37134   1.38003   1.43390   1.47210   1.63228
 Alpha virt. eigenvalues --    1.85166   1.90698   1.94191   1.98245   2.00915
 Alpha virt. eigenvalues --    2.06052   2.19675   2.29798   2.35839   3.40064
 Alpha virt. eigenvalues --    3.51848
          Condensed to atoms (all electrons):
               1          2          3          4          5          6
     1  C    5.523057   0.356806   0.359944   0.359875   0.002796   0.000040
     2  H    0.356806   0.467265  -0.019432  -0.019445  -0.000080   0.000002
     3  H    0.359944  -0.019432   0.448344  -0.017311  -0.000061   0.000004
     4  H    0.359875  -0.019445  -0.017311   0.448399  -0.000062  -0.000013
     5  C    0.002796  -0.000080  -0.000061  -0.000062   5.140215   0.362752
     6  H    0.000040   0.000002   0.000004  -0.000013   0.362752   0.524390
     7  H    0.000039   0.000002  -0.000012   0.000004   0.362764  -0.037777
     8  C    0.206363  -0.043109  -0.035212  -0.035199  -0.055075  -0.004291
     9  O   -0.067630   0.002597   0.000901   0.000906   0.002130   0.002734
    10  O   -0.051722   0.001291   0.001927   0.001943   0.203397  -0.026638
    11  C   -0.000005   0.000000  -0.000002  -0.000002   0.241136  -0.047277
    12  H    0.000001  -0.000000  -0.000000  -0.000000  -0.044993   0.000307
    13  H   -0.000002   0.000000   0.000000   0.000000  -0.042852  -0.003255
    14  H   -0.000002   0.000000   0.000000   0.000000  -0.042840   0.003469
               7          8          9         10         11         12
     1  C    0.000039   0.206363  -0.067630  -0.051722  -0.000005   0.000001
     2  H    0.000002  -0.043109   0.002597   0.001291   0.000000  -0.000000
     3  H   -0.000012  -0.035212   0.000901   0.001927  -0.000002  -0.000000
     4  H    0.000004  -0.035199   0.000906   0.001943  -0.000002  -0.000000
     5  C    0.362764  -0.055075   0.002130   0.203397   0.241136  -0.044993
     6  H   -0.037777  -0.004291   0.002734  -0.026638  -0.047277   0.000307
     7  H    0.524388  -0.004290   0.002734  -0.026636  -0.047286   0.000293
     8  C   -0.004290   4.535309   0.464750   0.219049   0.003133  -0.000062
     9  O    0.002734   0.464750   8.201860  -0.029274   0.000100   0.000002
    10  O   -0.026636   0.219049  -0.029274   8.331025  -0.025048   0.001080
    11  C   -0.047286   0.003133   0.000100  -0.025048   5.391889   0.367417
    12  H    0.000293  -0.000062   0.000002   0.001080   0.367417   0.512900
    13  H    0.003468  -0.000065  -0.000001   0.001113   0.374377  -0.023574
    14  H   -0.003234  -0.000065  -0.000001   0.001117   0.374328  -0.023554
              13         14
     1  C   -0.000002  -0.000002
     2  H    0.000000   0.000000
     3  H    0.000000   0.000000
     4  H    0.000000   0.000000
     5  C   -0.042852  -0.042840
     6  H   -0.003255   0.003469
     7  H    0.003468  -0.003234
     8  C   -0.000065  -0.000065
     9  O   -0.000001  -0.000001
    10  O    0.001113   0.001117
    11  C    0.374377   0.374328
    12  H   -0.023574  -0.023554
    13  H    0.490046  -0.024224
    14  H   -0.024224   0.489949
 Mulliken charges:
               1
     1  C   -0.689559
     2  H    0.254102
     3  H    0.260910
     4  H    0.260904
     5  C   -0.129229
     6  H    0.225552
     7  H    0.225543
     8  C    0.748764
     9  O   -0.581810
    10  O   -0.602624
    11  C   -0.632760
    12  H    0.210183
    13  H    0.224967
    14  H    0.225056
 Sum of Mulliken charges =   0.00000
 Mulliken charges with hydrogens summed into heavy atoms:
               1
     1  C    0.086357
     5  C    0.321867
     8  C    0.748764
     9  O   -0.581810
    10  O   -0.602624
    11  C    0.027446
 APT charges:
               1
     1  C   -0.112163
     2  H    0.023331
     3  H    0.061776
     4  H    0.061816
     5  C    0.537123
     6  H   -0.049144
     7  H   -0.049160
     8  C    1.119851
     9  O   -0.735931
    10  O   -0.873932
    11  C   -0.000145
    12  H   -0.008868
    13  H    0.012646
    14  H    0.012799
 Sum of APT charges =   0.00000
 APT charges with hydrogens summed into heavy atoms:
               1
     1  C    0.034761
     5  C    0.438819
     8  C    1.119851
     9  O   -0.735931
    10  O   -0.873932
    11  C    0.016432
 Electronic spatial extent (au):  <R**2>=            785.2314
 Charge=              0.0000 electrons
 Dipole moment (field-independent basis, Debye):
    X=             -0.3716    Y=             -1.3802    Z=              0.0004  Tot=              1.4294
 Quadrupole moment (field-independent basis, Debye-Ang):
   XX=            -30.7977   YY=            -41.7500   ZZ=            -35.8506
   XY=             -6.2784   XZ=              0.0004   YZ=             -0.0006
 Traceless Quadrupole moment (field-independent basis, Debye-Ang):
   XX=              5.3351   YY=             -5.6173   ZZ=              0.2822
   XY=             -6.2784   XZ=              0.0004   YZ=             -0.0006
 Octapole moment (field-independent basis, Debye-Ang**2):
  XXX=              6.6943  YYY=             -4.5898  ZZZ=              0.0013  XYY=             -3.5828
  XXY=             -5.5306  XXZ=              0.0021  XZZ=              1.7515  YZZ=              0.1802
  YYZ=              0.0009  XYZ=             -0.0036
 Hexadecapole moment (field-independent basis, Debye-Ang**3):
 XXXX=           -762.1859 YYYY=           -185.9265 ZZZZ=            -49.0675 XXXY=            -10.8954
 XXXZ=             -0.0216 YYYX=             -7.9337 YYYZ=              0.0031 ZZZX=              0.0234
 ZZZY=             -0.0041 XXYY=           -164.1714 XXZZ=           -139.4684 YYZZ=            -33.6816
 XXYZ=             -0.0043 YYXZ=             -0.0082 ZZXY=              0.7242
 N-N= 2.328414879617D+02 E-N=-1.178928036022D+03  KE= 3.027627719153D+02
  Exact polarizability:  57.276  -0.310  44.351  -0.001  -0.001  32.947
 Approx polarizability:  38.774   2.411  44.566  -0.000  -0.001  28.576
 Calling FoFJK, ICntrl=    100127 FMM=F ISym2X=0 I1Cent= 0 IOpClX= 0 NMat=1 NMatS=1 NMatT=0.
 Full mass-weighted force constant matrix:
 Low frequencies --- -328.5882 -267.6822 -107.1642   -0.0003    0.0006    0.0010
 Low frequencies ---   91.6988  106.4263  175.1024
 ******    2 imaginary frequencies (negative Signs) ****** 
 Diagonal vibrational polarizability:
       22.3727628       4.7479362      21.9483682
 Diagonal vibrational hyperpolarizability:
       77.7453291     -17.6463607       0.2157156
 Harmonic frequencies (cm**-1), IR intensities (KM/Mole), Raman scattering
 activities (A**4/AMU), depolarization ratios for plane and unpolarized
 incident light, reduced masses (AMU), force constants (mDyne/A),
 and normal coordinates:
                      1                      2                      3
                      A                      A                      A
 Frequencies --   -321.1999              -245.5868                39.9874
 Red. masses --      1.0285                 1.0923                 2.0912
 Frc consts  --      0.0625                 0.0388                 0.0020
 IR Inten    --      0.3945                 1.2201                 0.9460
 Raman Activ --      0.0203                 0.0267                 0.3250
 Depolar (P) --      0.7500                 0.7499                 0.7500
 Depolar (U) --      0.8571                 0.8571                 0.8571
  Atom  AN      X      Y      Z        X      Y      Z        X      Y      Z
     1   6    -0.00  -0.00   0.01     0.00   0.00   0.05    -0.00  -0.00  -0.00
     2   1     0.00   0.00   0.54     0.00   0.00   0.16     0.00  -0.00   0.05
     3   1    -0.32  -0.38  -0.29    -0.09  -0.04   0.02    -0.05  -0.02  -0.02
     4   1     0.32   0.38  -0.29     0.09   0.04   0.02     0.05   0.02  -0.02
     5   6     0.00  -0.00  -0.01     0.00  -0.00   0.02    -0.00  -0.00   0.23
     6   1    -0.01  -0.04  -0.04     0.01   0.05   0.06     0.11   0.26   0.42
     7   1     0.01   0.04  -0.04    -0.01  -0.05   0.06    -0.11  -0.26   0.42
     8   6     0.00   0.00   0.00     0.00   0.00  -0.01    -0.00   0.00  -0.03
     9   8     0.00   0.00  -0.02     0.00   0.00  -0.05     0.00   0.00  -0.11
    10   8     0.00  -0.00   0.01     0.00  -0.00  -0.00    -0.00   0.00   0.07
    11   6     0.00  -0.00   0.03    -0.00   0.00  -0.01     0.00  -0.00  -0.14
    12   1    -0.00   0.00  -0.06     0.00  -0.00   0.56    -0.00   0.00  -0.41
    13   1     0.02  -0.09   0.08    -0.24   0.42  -0.28     0.28   0.01  -0.17
    14   1    -0.02   0.08   0.08     0.24  -0.41  -0.28    -0.28  -0.01  -0.17
                      4                      5                      6
                      A                      A                      A
 Frequencies --    192.8371               255.6831               320.6929
 Red. masses --      2.7576                 3.6629                 4.5752
 Frc consts  --      0.0604                 0.1411                 0.2772
 IR Inten    --      3.8023                 9.5961                 0.4693
 Raman Activ --      0.3330                 0.0381                 9.5323
 Depolar (P) --      0.6613                 0.7500                 0.2932
 Depolar (U) --      0.7962                 0.8571                 0.4534
  Atom  AN      X      Y      Z        X      Y      Z        X      Y      Z
     1   6     0.16   0.13  -0.00     0.00  -0.00  -0.20     0.07   0.00   0.00
     2   1     0.03   0.36   0.00    -0.00   0.00  -0.29     0.13  -0.11  -0.00
     3   1     0.33   0.12   0.00     0.16  -0.15  -0.30    -0.01   0.01  -0.00
     4   1     0.33   0.12  -0.00    -0.16   0.15  -0.30    -0.01   0.01   0.00
     5   6     0.06  -0.07   0.00    -0.00   0.00  -0.10    -0.16  -0.17   0.00
     6   1     0.14  -0.08   0.01     0.15  -0.24  -0.26    -0.22  -0.16   0.00
     7   1     0.14  -0.08  -0.01    -0.15   0.24  -0.26    -0.22  -0.16  -0.00
     8   6    -0.02  -0.07   0.00     0.00   0.00   0.10     0.16   0.12  -0.00
     9   8    -0.12  -0.06  -0.00     0.00   0.00   0.01     0.28   0.10   0.00
    10   8     0.01  -0.15   0.00     0.00   0.00   0.35    -0.00  -0.02  -0.00
    11   6    -0.10   0.19  -0.00    -0.00  -0.00  -0.13    -0.32  -0.03   0.00
    12   1     0.10   0.42  -0.00    -0.00  -0.00   0.05    -0.13   0.19  -0.00
    13   1    -0.27   0.22  -0.01    -0.08   0.13  -0.22    -0.49   0.00  -0.01
    14   1    -0.27   0.22   0.01     0.08  -0.13  -0.22    -0.49   0.00   0.01
                      7                      8                      9
                      A                      A                      A
 Frequencies --    382.7659               597.1516               628.0395
 Red. masses --      2.9196                 6.4971                 4.6177
 Frc consts  --      0.2520                 1.3650                 1.0731
 IR Inten    --      0.7491                17.9572               109.9682
 Raman Activ --      2.6875                 2.9887                28.3855
 Depolar (P) --      0.3420                 0.7471                 0.2496
 Depolar (U) --      0.5097                 0.8553                 0.3995
  Atom  AN      X      Y      Z        X      Y      Z        X      Y      Z
     1   6     0.19   0.05   0.00     0.21  -0.26   0.00    -0.23   0.18  -0.00
     2   1    -0.01   0.40   0.00     0.25  -0.33  -0.00    -0.44   0.53   0.00
     3   1     0.43   0.04   0.01     0.15  -0.24   0.01     0.05   0.15   0.01
     4   1     0.43   0.04  -0.01     0.15  -0.24  -0.01     0.05   0.15  -0.01
     5   6    -0.15   0.17   0.00    -0.08   0.03   0.00     0.05  -0.11   0.00
     6   1    -0.17   0.15  -0.01    -0.19   0.05   0.00    -0.01  -0.09   0.01
     7   1    -0.17   0.15   0.01    -0.19   0.05  -0.00    -0.01  -0.09  -0.01
     8   6    -0.03  -0.11   0.00     0.03  -0.06   0.00    -0.20  -0.13  -0.00
     9   8     0.10  -0.13  -0.00    -0.27  -0.02  -0.00     0.14  -0.16   0.00
    10   8    -0.13   0.08  -0.00     0.30   0.30  -0.00     0.21   0.18   0.00
    11   6    -0.02  -0.06   0.00    -0.17  -0.04   0.00    -0.03  -0.04  -0.00
    12   1    -0.22  -0.29   0.00    -0.05   0.11  -0.00     0.18   0.20  -0.00
    13   1     0.16  -0.09   0.01    -0.29  -0.01  -0.01    -0.22   0.01  -0.01
    14   1     0.16  -0.09  -0.01    -0.29  -0.01   0.01    -0.22   0.01   0.01
                     10                     11                     12
                      A                      A                      A
 Frequencies --    664.7720               830.1484               849.6386
 Red. masses --      2.5886                 4.0012                 1.1140
 Frc consts  --      0.6740                 1.6246                 0.4738
 IR Inten    --     11.1674                54.7241                 0.5234
 Raman Activ --      1.9758                 9.4668                 0.0838
 Depolar (P) --      0.7500                 0.4287                 0.7500
 Depolar (U) --      0.8571                 0.6001                 0.8571
  Atom  AN      X      Y      Z        X      Y      Z        X      Y      Z
     1   6    -0.00   0.00   0.04    -0.09   0.11  -0.00    -0.00   0.00   0.01
     2   1    -0.00   0.00  -0.30     0.02  -0.09  -0.00    -0.00   0.00  -0.01
     3   1     0.44  -0.37  -0.20    -0.23   0.09  -0.03     0.02  -0.02  -0.01
     4   1    -0.44   0.37  -0.20    -0.23   0.09   0.03    -0.02   0.02  -0.01
     5   6     0.00  -0.00  -0.01    -0.12   0.25   0.00     0.00   0.00   0.08
     6   1    -0.02   0.12   0.08     0.10   0.16  -0.03    -0.23  -0.39  -0.22
     7   1     0.02  -0.12   0.08     0.10   0.16   0.03     0.23   0.39  -0.22
     8   6    -0.00  -0.00   0.32     0.07  -0.04   0.00     0.00  -0.00   0.01
     9   8     0.00  -0.00  -0.13    -0.00  -0.04  -0.00    -0.00  -0.00  -0.01
    10   8     0.00   0.00  -0.11     0.25  -0.21  -0.00    -0.00  -0.00  -0.03
    11   6     0.00  -0.00   0.01    -0.16   0.03   0.00    -0.00  -0.00   0.04
    12   1     0.00   0.00   0.02    -0.54  -0.42  -0.00    -0.00  -0.00  -0.18
    13   1    -0.03  -0.02   0.02     0.21  -0.06   0.03     0.35   0.26  -0.18
    14   1     0.03   0.02   0.02     0.21  -0.06  -0.03    -0.35  -0.26  -0.18
                     13                     14                     15
                      A                      A                      A
 Frequencies --    979.7491              1022.0394              1168.1500
 Red. masses --      3.8778                 2.9245                 1.8191
 Frc consts  --      2.1931                 1.7998                 1.4625
 IR Inten    --    198.3674                37.7366                16.7224
 Raman Activ --      3.9171                 5.9001                 0.6274
 Depolar (P) --      0.3294                 0.5855                 0.7500
 Depolar (U) --      0.4955                 0.7386                 0.8571
  Atom  AN      X      Y      Z        X      Y      Z        X      Y      Z
     1   6    -0.02   0.21  -0.00    -0.01  -0.05   0.00    -0.00  -0.00  -0.16
     2   1     0.30  -0.37  -0.00    -0.12   0.15   0.00     0.00  -0.00   0.34
     3   1    -0.45   0.16  -0.07     0.14  -0.03   0.02    -0.40   0.47   0.15
     4   1    -0.45   0.16   0.07     0.14  -0.03  -0.02     0.40  -0.47   0.15
     5   6     0.11  -0.00  -0.00     0.31   0.04  -0.00     0.00   0.00  -0.01
     6   1    -0.08   0.05   0.01     0.42   0.04   0.01    -0.03   0.03   0.01
     7   1    -0.08   0.05  -0.01     0.42   0.04  -0.01     0.03  -0.03   0.01
     8   6     0.31  -0.03   0.00    -0.04   0.01  -0.00     0.00  -0.00   0.21
     9   8    -0.09  -0.21   0.00     0.00   0.04   0.00    -0.00   0.00  -0.04
    10   8    -0.11   0.11   0.00    -0.06   0.04  -0.00    -0.00  -0.00  -0.03
    11   6    -0.04  -0.06  -0.00    -0.24  -0.07   0.00     0.00  -0.00   0.01
    12   1     0.07   0.08   0.00    -0.46  -0.34   0.00     0.00   0.00  -0.02
    13   1    -0.14  -0.03  -0.01     0.03  -0.16   0.03     0.03   0.02  -0.01
    14   1    -0.14  -0.03   0.01     0.03  -0.16  -0.03    -0.03  -0.02  -0.01
                     16                     17                     18
                      A                      A                      A
 Frequencies --   1185.6228              1195.2900              1229.7444
 Red. masses --      1.8884                 2.2020                 1.3884
 Frc consts  --      1.5640                 1.8536                 1.2370
 IR Inten    --     15.4482               187.0234                 7.2164
 Raman Activ --      9.0299                 1.1496                 4.7081
 Depolar (P) --      0.1634                 0.2176                 0.7500
 Depolar (U) --      0.2809                 0.3574                 0.8571
  Atom  AN      X      Y      Z        X      Y      Z        X      Y      Z
     1   6    -0.08  -0.05   0.00    -0.14  -0.07  -0.00     0.00   0.00  -0.00
     2   1    -0.25   0.26  -0.00    -0.43   0.47   0.00     0.00  -0.00   0.01
     3   1     0.20  -0.00   0.05     0.34   0.02   0.10    -0.01   0.02   0.01
     4   1     0.20  -0.00  -0.05     0.34   0.02  -0.10     0.01  -0.02   0.01
     5   6     0.04   0.17  -0.00    -0.04  -0.10   0.00     0.00   0.00   0.15
     6   1    -0.11   0.17  -0.02    -0.09  -0.07   0.02     0.38  -0.44  -0.11
     7   1    -0.11   0.17   0.02    -0.09  -0.07  -0.02    -0.38   0.44  -0.11
     8   6     0.09  -0.01  -0.00     0.23   0.01   0.00    -0.00  -0.00   0.01
     9   8    -0.02   0.04   0.00    -0.06   0.00  -0.00     0.00   0.00  -0.01
    10   8    -0.01  -0.07   0.00    -0.00   0.03  -0.00    -0.00  -0.00  -0.06
    11   6     0.01  -0.16   0.00     0.01   0.10  -0.00     0.00  -0.00  -0.09
    12   1     0.43   0.34  -0.00    -0.24  -0.18   0.00     0.00   0.00   0.20
    13   1    -0.40   0.02  -0.08     0.24  -0.00   0.05    -0.25  -0.21   0.09
    14   1    -0.40   0.01   0.08     0.24   0.00  -0.05     0.24   0.21   0.09
                     19                     20                     21
                      A                      A                      A
 Frequencies --   1407.0126              1495.2982              1523.1786
 Red. masses --      1.1773                 1.3171                 1.2164
 Frc consts  --      1.3732                 1.7351                 1.6628
 IR Inten    --      0.2240                23.1619                38.1750
 Raman Activ --     12.6500                 2.5434                 5.0837
 Depolar (P) --      0.7500                 0.4703                 0.7457
 Depolar (U) --      0.8571                 0.6397                 0.8543
  Atom  AN      X      Y      Z        X      Y      Z        X      Y      Z
     1   6    -0.00   0.00   0.00    -0.01   0.01  -0.00     0.09  -0.09   0.00
     2   1    -0.00   0.00  -0.00     0.00  -0.02   0.00    -0.24   0.48  -0.00
     3   1     0.00  -0.00  -0.00     0.02  -0.03  -0.02    -0.42   0.32   0.24
     4   1    -0.00   0.00  -0.00     0.02  -0.03   0.02    -0.42   0.32  -0.24
     5   6    -0.00   0.00  -0.06    -0.13   0.00   0.00    -0.01   0.00   0.00
     6   1     0.62   0.03   0.02     0.68  -0.09   0.01     0.06   0.00   0.01
     7   1    -0.62  -0.03   0.02     0.68  -0.09  -0.01     0.06   0.00  -0.01
     8   6     0.00  -0.00  -0.00     0.05  -0.05  -0.00    -0.00   0.04   0.00
     9   8    -0.00   0.00   0.00    -0.01   0.02   0.00    -0.00  -0.03  -0.00
    10   8    -0.00  -0.00  -0.02    -0.02   0.04   0.00     0.00  -0.00   0.00
    11   6     0.00  -0.00   0.11     0.03  -0.04  -0.00     0.01  -0.00  -0.00
    12   1    -0.00   0.00  -0.16     0.07   0.01  -0.00    -0.01  -0.02  -0.00
    13   1     0.21   0.21  -0.06    -0.11   0.04  -0.05    -0.04   0.00   0.00
    14   1    -0.21  -0.21  -0.06    -0.11   0.04   0.05    -0.04   0.00   0.00
                     22                     23                     24
                      A                      A                      A
 Frequencies --   1539.1228              1570.6824              1635.7019
 Red. masses --      1.1868                 2.5136                 1.3791
 Frc consts  --      1.6565                 3.6537                 2.1739
 IR Inten    --      5.9822               141.9964                21.1392
 Raman Activ --      2.3609                21.6745                 4.8386
 Depolar (P) --      0.7030                 0.7445                 0.7462
 Depolar (U) --      0.8256                 0.8536                 0.8547
  Atom  AN      X      Y      Z        X      Y      Z        X      Y      Z
     1   6     0.00  -0.00   0.00    -0.05  -0.05  -0.00     0.03   0.01   0.00
     2   1    -0.02   0.03  -0.00     0.17  -0.38   0.00    -0.20   0.39  -0.01
     3   1    -0.03   0.02   0.01     0.39   0.30   0.27    -0.14  -0.48  -0.35
     4   1    -0.03   0.02  -0.01     0.39   0.30  -0.27    -0.13  -0.48   0.35
     5   6    -0.01  -0.00   0.00    -0.03   0.01   0.00    -0.01   0.00   0.00
     6   1     0.03  -0.03  -0.02     0.17   0.02   0.02     0.05   0.04   0.03
     7   1     0.03  -0.03   0.02     0.17   0.02  -0.02     0.05   0.04  -0.03
     8   6     0.00  -0.01  -0.00    -0.05   0.29   0.00     0.00   0.15   0.00
     9   8    -0.00   0.00   0.00    -0.00  -0.18  -0.00    -0.01  -0.08  -0.00
    10   8    -0.00   0.00  -0.00     0.02  -0.02   0.00     0.01  -0.01  -0.00
    11   6    -0.11  -0.06   0.00     0.00  -0.02  -0.00     0.00  -0.01   0.00
    12   1     0.37   0.46  -0.00     0.05   0.03  -0.00    -0.01  -0.02  -0.00
    13   1     0.52   0.13  -0.16    -0.02   0.05  -0.04    -0.01   0.07  -0.06
    14   1     0.52   0.13   0.16    -0.02   0.05   0.04    -0.01   0.07   0.06
                     25                     26                     27
                      A                      A                      A
 Frequencies --   1638.8613              1640.9650              1658.0255
 Red. masses --      1.0470                 1.0396                 1.0423
 Frc consts  --      1.6569                 1.6494                 1.6881
 IR Inten    --     10.8488                 6.2241                 5.0304
 Raman Activ --     23.3684                23.4802                30.1851
 Depolar (P) --      0.7500                 0.7500                 0.7323
 Depolar (U) --      0.8571                 0.8571                 0.8455
  Atom  AN      X      Y      Z        X      Y      Z        X      Y      Z
     1   6     0.00   0.00  -0.05     0.00   0.00  -0.00    -0.00  -0.00   0.00
     2   1    -0.00   0.00   0.73    -0.00   0.00   0.02     0.01  -0.02  -0.00
     3   1     0.47   0.07   0.05     0.02   0.00   0.00     0.00   0.02   0.02
     4   1    -0.47  -0.08   0.06    -0.02  -0.00   0.00     0.00   0.02  -0.02
     5   6    -0.00   0.00   0.00    -0.00  -0.00  -0.02     0.02   0.02  -0.00
     6   1     0.00  -0.00   0.00     0.03   0.03   0.00    -0.08  -0.27  -0.20
     7   1    -0.00   0.00  -0.00    -0.03  -0.03   0.00    -0.08  -0.27   0.20
     8   6    -0.00   0.00  -0.02    -0.00   0.00  -0.00     0.00  -0.01   0.00
     9   8    -0.00  -0.00   0.00    -0.00  -0.00   0.00    -0.00   0.01   0.00
    10   8     0.00  -0.00   0.00     0.00  -0.00   0.00    -0.00   0.01   0.00
    11   6     0.00  -0.00   0.00    -0.00   0.00  -0.05     0.02  -0.04  -0.00
    12   1    -0.00  -0.00  -0.02     0.00  -0.00   0.71    -0.20  -0.26   0.00
    13   1    -0.02   0.01  -0.00     0.46  -0.17   0.06    -0.05   0.46  -0.33
    14   1     0.02  -0.01  -0.00    -0.46   0.17   0.06    -0.05   0.46   0.34
                     28                     29                     30
                      A                      A                      A
 Frequencies --   1670.5323              3327.5043              3334.1637
 Red. masses --      1.0939                 1.0314                 1.0313
 Frc consts  --      1.7987                 6.7285                 6.7548
 IR Inten    --      4.1174                14.8708                 1.2934
 Raman Activ --      1.8121                93.1221               101.6831
 Depolar (P) --      0.5784                 0.0125                 0.0023
 Depolar (U) --      0.7329                 0.0247                 0.0045
  Atom  AN      X      Y      Z        X      Y      Z        X      Y      Z
     1   6    -0.00   0.00  -0.00    -0.00   0.00   0.00    -0.03   0.03  -0.00
     2   1     0.02  -0.03   0.00     0.00   0.00  -0.00     0.49   0.29  -0.00
     3   1     0.01   0.03   0.02    -0.00  -0.00   0.00    -0.04  -0.33   0.48
     4   1     0.01   0.03  -0.02    -0.00  -0.00  -0.00    -0.05  -0.33  -0.48
     5   6    -0.01  -0.08  -0.00     0.00  -0.00   0.00     0.00   0.00   0.00
     6   1     0.01   0.49   0.37     0.00   0.02  -0.04    -0.00  -0.01   0.01
     7   1     0.01   0.49  -0.37     0.00   0.02   0.04    -0.00  -0.01  -0.01
     8   6    -0.00  -0.02  -0.00     0.00   0.00  -0.00     0.00   0.00  -0.00
     9   8     0.00   0.01  -0.00    -0.00   0.00  -0.00     0.00  -0.00   0.00
    10   8     0.00  -0.01  -0.00    -0.00   0.00   0.00     0.00   0.00   0.00
    11   6     0.00  -0.03   0.00    -0.04  -0.02  -0.00     0.00  -0.00  -0.00
    12   1    -0.09  -0.13  -0.00     0.43  -0.39  -0.00    -0.00   0.00   0.00
    13   1    -0.00   0.25  -0.19     0.03   0.33   0.47    -0.00  -0.00  -0.00
    14   1    -0.00   0.25   0.19     0.02   0.33  -0.47    -0.00  -0.00   0.00
                     31                     32                     33
                      A                      A                      A
 Frequencies --   3345.2937              3394.4581              3407.5518
 Red. masses --      1.0554                 1.1080                 1.1023
 Frc consts  --      6.9586                 7.5218                 7.5413
 IR Inten    --     10.9926                 0.8786                20.6131
 Raman Activ --     84.8421                93.4163                75.6580
 Depolar (P) --      0.1449                 0.7500                 0.6893
 Depolar (U) --      0.2531                 0.8571                 0.8160
  Atom  AN      X      Y      Z        X      Y      Z        X      Y      Z
     1   6    -0.00   0.00   0.00    -0.00  -0.00   0.00    -0.00  -0.00  -0.00
     2   1     0.01   0.00  -0.00     0.00   0.00   0.00     0.00   0.00  -0.00
     3   1    -0.00  -0.01   0.01     0.00   0.00  -0.00     0.00   0.00  -0.00
     4   1    -0.00  -0.01  -0.01    -0.00  -0.00  -0.00     0.00   0.00   0.00
     5   6    -0.01  -0.06  -0.00     0.00   0.00  -0.07     0.00   0.01   0.00
     6   1     0.05   0.38  -0.59    -0.04  -0.30   0.43    -0.01  -0.04   0.07
     7   1     0.05   0.38   0.59     0.04   0.30   0.43    -0.01  -0.05  -0.07
     8   6    -0.00  -0.00   0.00     0.00   0.00  -0.00     0.00   0.00   0.00
     9   8    -0.00   0.00  -0.00     0.00  -0.00   0.00    -0.00  -0.00  -0.00
    10   8     0.00   0.00   0.00     0.00  -0.00   0.00     0.00  -0.00  -0.00
    11   6    -0.00   0.01   0.00    -0.00   0.00   0.06    -0.04   0.08   0.00
    12   1     0.04  -0.04  -0.00     0.00  -0.00   0.02     0.61  -0.53  -0.00
    13   1    -0.00  -0.04  -0.07    -0.02  -0.27  -0.38    -0.03  -0.22  -0.34
    14   1    -0.00  -0.04   0.07     0.02   0.27  -0.38    -0.03  -0.22   0.34
                     34                     35                     36
                      A                      A                      A
 Frequencies --   3417.6067              3419.5576              3420.3051
 Red. masses --      1.1016                 1.1080                 1.1041
 Frc consts  --      7.5809                 7.6335                 7.6097
 IR Inten    --      0.7447                40.8093                 3.4955
 Raman Activ --     58.2760                 5.7870                71.7474
 Depolar (P) --      0.7500                 0.7500                 0.7413
 Depolar (U) --      0.8571                 0.8571                 0.8514
  Atom  AN      X      Y      Z        X      Y      Z        X      Y      Z
     1   6     0.00   0.00  -0.09    -0.00  -0.00  -0.00    -0.06  -0.07  -0.00
     2   1    -0.00  -0.00  -0.02     0.00   0.00  -0.00     0.71   0.40  -0.00
     3   1    -0.05  -0.42   0.57    -0.00  -0.02   0.02     0.01   0.22  -0.33
     4   1     0.05   0.42   0.56     0.00   0.02   0.02     0.01   0.22   0.34
     5   6    -0.00  -0.00   0.00     0.00   0.00  -0.06     0.00  -0.00   0.00
     6   1     0.00   0.01  -0.01    -0.04  -0.26   0.38    -0.00   0.00  -0.00
     7   1    -0.00  -0.01  -0.01     0.04   0.26   0.38    -0.00   0.00   0.00
     8   6    -0.00   0.00  -0.00     0.00   0.00  -0.00    -0.00  -0.00  -0.00
     9   8    -0.00  -0.00  -0.00    -0.00  -0.00   0.00     0.00   0.00  -0.00
    10   8    -0.00   0.00   0.00    -0.00  -0.00   0.00     0.00   0.00   0.00
    11   6     0.00  -0.00   0.00    -0.00   0.00  -0.07     0.00  -0.00   0.00
    12   1     0.00  -0.00   0.00    -0.00   0.00  -0.02    -0.00   0.00   0.00
    13   1    -0.00  -0.01  -0.02     0.03   0.31   0.43     0.00   0.00   0.00
    14   1     0.00   0.01  -0.02    -0.03  -0.31   0.43     0.00   0.00  -0.00

 -------------------
 - Thermochemistry -
 -------------------
 Temperature   298.150 Kelvin.  Pressure   1.00000 Atm.
 Atom     1 has atomic number  6 and mass  12.00000
 Atom     2 has atomic number  1 and mass   1.00783
 Atom     3 has atomic number  1 and mass   1.00783
 Atom     4 has atomic number  1 and mass   1.00783
 Atom     5 has atomic number  6 and mass  12.00000
 Atom     6 has atomic number  1 and mass   1.00783
 Atom     7 has atomic number  1 and mass   1.00783
 Atom     8 has atomic number  6 and mass  12.00000
 Atom     9 has atomic number  8 and mass  15.99491
 Atom    10 has atomic number  8 and mass  15.99491
 Atom    11 has atomic number  6 and mass  12.00000
 Atom    12 has atomic number  1 and mass   1.00783
 Atom    13 has atomic number  1 and mass   1.00783
 Atom    14 has atomic number  1 and mass   1.00783
 Molecular mass:    88.05243 amu.
 Principal axes and moments of inertia in atomic units:
                           1         2         3
     Eigenvalues --   224.61322 970.945881162.59506
           X            0.99956  -0.02974  -0.00000
           Y            0.02974   0.99956  -0.00000
           Z            0.00000   0.00000   1.00000
 This molecule is an asymmetric top.
 Rotational symmetry number  1.
 Rotational temperatures (Kelvin)      0.38561     0.08921     0.07450
 Rotational constants (GHZ):           8.03488     1.85875     1.55234
    2 imaginary frequencies ignored.
 Zero-point vibrational energy     325313.3 (Joules/Mol)
                                   77.75174 (Kcal/Mol)
 Warning -- explicit consideration of   6 degrees of freedom as
           vibrations may cause significant error
 Vibrational temperatures:     57.53   277.45   367.87   461.40   550.71
          (Kelvin)            859.17   903.61   956.46  1194.40  1222.44
                             1409.64  1470.48  1680.71  1705.84  1719.75
                             1769.33  2024.37  2151.40  2191.51  2214.45
                             2259.86  2353.41  2357.95  2360.98  2385.53
                             2403.52  4787.53  4797.11  4813.13  4883.86
                             4902.70  4917.17  4919.97  4921.05
 
 Zero-point correction=                           0.123905 (Hartree/Particle)
 Thermal correction to Energy=                    0.130116
 Thermal correction to Enthalpy=                  0.131060
 Thermal correction to Gibbs Free Energy=         0.093113
 Sum of electronic and zero-point Energies=           -304.012938
 Sum of electronic and thermal Energies=              -304.006727
 Sum of electronic and thermal Enthalpies=            -304.005783
 Sum of electronic and thermal Free Energies=         -304.043730
 
                     E (Thermal)             CV                S
                      KCal/Mol        Cal/Mol-Kelvin    Cal/Mol-Kelvin
 Total                   81.649             20.952             79.866
 Electronic               0.000              0.000              0.000
 Translational            0.889              2.981             39.339
 Rotational               0.889              2.981             27.030
 Vibrational             79.871             14.991             13.497
 Vibration     1          0.594              1.981              5.260
 Vibration     2          0.635              1.850              2.200
 Vibration     3          0.666              1.753              1.691
 Vibration     4          0.706              1.634              1.307
 Vibration     5          0.752              1.507              1.028
 Vibration     6          0.955              1.038              0.455
                       Q            Log10(Q)             Ln(Q)
 Total Bot       0.148253D-42        -42.828995        -98.617406
 Total V=0       0.145666D+15         14.163358         32.612337
 Vib (Bot)       0.253257D-55        -55.596438       -128.015530
 Vib (Bot)    1  0.517422D+01          0.713845          1.643689
 Vib (Bot)    2  0.103679D+01          0.015693          0.036134
 Vib (Bot)    3  0.761260D+00         -0.118467         -0.272781
 Vib (Bot)    4  0.585933D+00         -0.232152         -0.534549
 Vib (Bot)    5  0.471451D+00         -0.326564         -0.751941
 Vib (Bot)    6  0.250786D+00         -0.600697         -1.383157
 Vib (V=0)       0.248837D+02          1.395915          3.214213
 Vib (V=0)    1  0.569833D+01          0.755747          1.740172
 Vib (V=0)    2  0.165106D+01          0.217763          0.501419
 Vib (V=0)    3  0.141078D+01          0.149459          0.344141
 Vib (V=0)    4  0.127027D+01          0.103896          0.239230
 Vib (V=0)    5  0.118722D+01          0.074530          0.171611
 Vib (V=0)    6  0.105937D+01          0.025047          0.057673
 Electronic      0.100000D+01          0.000000          0.000000
 Translational   0.324764D+08          7.511567         17.296023
 Rotational      0.180250D+06          5.255876         12.102101
 ***** Axes restored to original set *****
 -------------------------------------------------------------------
 Center     Atomic                   Forces (Hartrees/Bohr)
 Number     Number              X              Y              Z
 -------------------------------------------------------------------
      1        6          -0.025805136    0.000080747    0.000039338
      2        1          -0.001373374   -0.007561715    0.000000808
      3        1           0.001458349    0.006999259   -0.006184316
      4        1           0.001449581    0.007024212    0.006141318
      5        6           0.022011048    0.015180558   -0.000012776
      6        1           0.003055646   -0.006702722    0.004581962
      7        1           0.003066436   -0.006699072   -0.004589814
      8        6          -0.043923879   -0.008434055    0.000011123
      9        8           0.047311849    0.096233587   -0.000002315
     10        8          -0.020576849   -0.093832091    0.000001177
     11        6           0.018415662   -0.013676361    0.000019986
     12        1          -0.009852642   -0.000798140   -0.000011898
     13        1           0.002373145    0.006097581    0.006441012
     14        1           0.002390166    0.006088212   -0.006435604
 -------------------------------------------------------------------
 Cartesian Forces:  Max     0.096233587 RMS     0.024538137

 GradGradGradGradGradGradGradGradGradGradGradGradGradGradGradGradGradGrad
 Berny optimization.
 Search for a local minimum.
 Step number   1 out of a maximum of    2
 All quantities printed in internal units (Hartrees-Bohrs-Radians)
 Second derivative matrix not updated -- analytic derivatives used.
 ITU=  0
     Eigenvalues ---   -0.00383  -0.00160   0.00313   0.00409   0.01736
     Eigenvalues ---    0.01872   0.02408   0.03508   0.04939   0.05728
     Eigenvalues ---    0.06777   0.08888   0.10047   0.10569   0.12321
     Eigenvalues ---    0.12869   0.13653   0.13698   0.17168   0.17872
     Eigenvalues ---    0.20553   0.24372   0.25665   0.31596   0.36462
     Eigenvalues ---    0.44880   0.51629   0.64679   0.67790   0.83444
     Eigenvalues ---    0.85055   0.91226   0.94430   1.00200   1.07731
     Eigenvalues ---    1.25743
 Eigenvalue     1 is  -3.83D-03 should be greater than     0.000000 Eigenvector:
                          Z2        Y3        Y4        Z4        Z3
   1                    0.48474  -0.45489   0.45350  -0.27725  -0.27557
                          Z14       Z13       X13       X14       Y13
   1                    0.19463   0.19399  -0.13757   0.13708  -0.11535
 Eigenvalue     2 is  -1.60D-03 should be greater than     0.000000 Eigenvector:
                          Z12       X13       X14       Z2        Z14
   1                    0.59430   0.44267  -0.44160   0.27334  -0.16641
                          Z13       Y3        Y4        Z7        Z6
   1                   -0.16473  -0.12714   0.12681  -0.11089  -0.11087
 Quadratic step=1.815D+00 exceeds max=3.000D-01 adjusted using Lamda=-2.034D-01.
 Angle between NR and scaled steps=  56.94 degrees.
 Angle between quadratic step and forces=  29.13 degrees.
 Linear search not attempted -- first point.
 B after Tr=    -0.000690   -0.001429    0.000016
         Rot=    1.000000   -0.000000    0.000001    0.000010 Ang=  -0.00 deg.
 Variable       Old X    -DE/DX   Delta X   Delta X   Delta X     New X
                                 (Linear)    (Quad)   (Total)
    X1       -0.98248  -0.02581   0.00000  -0.04885  -0.04961  -1.03209
    Y1       -3.30715   0.00008   0.00000   0.02196   0.02056  -3.28659
    Z1       -0.00001   0.00004   0.00000   0.00004   0.00005   0.00004
    X2       -0.30850  -0.00137   0.00000  -0.03576  -0.03656  -0.34506
    Y2       -5.21352  -0.00756   0.00000   0.00302   0.00160  -5.21192
    Z2        0.00369   0.00000   0.00000  -0.00004  -0.00003   0.00366
    X3       -0.30847   0.00146   0.00000  -0.00452  -0.00526  -0.31373
    Y3       -2.35718   0.00700   0.00000   0.01898   0.01756  -2.33962
    Z3       -1.65282  -0.00618   0.00000  -0.00509  -0.00508  -1.65790
    X4       -0.30846   0.00145   0.00000  -0.00447  -0.00521  -0.31367
    Y4       -2.35077   0.00702   0.00000   0.01904   0.01762  -2.33315
    Z4        1.64910   0.00614   0.00000   0.00504   0.00505   1.65415
    X5       -7.77286   0.02201   0.00000   0.03676   0.03606  -7.73680
    Y5       -0.56332   0.01518   0.00000  -0.01640  -0.01767  -0.58100
    Z5        0.00000  -0.00001   0.00000  -0.00002  -0.00002  -0.00002
    X6       -8.44688   0.00306   0.00000   0.00872   0.00799  -8.43888
    Y6       -1.51650  -0.00670   0.00000  -0.01870  -0.01996  -1.53645
    Z6        1.65096   0.00458   0.00000   0.00248   0.00248   1.65344
    X7       -8.44688   0.00307   0.00000   0.00875   0.00803  -8.43884
    Y7       -1.51650  -0.00670   0.00000  -0.01868  -0.01994  -1.53644
    Z7       -1.65096  -0.00459   0.00000  -0.00253  -0.00253  -1.65349
    X8       -3.89266  -0.04392   0.00000  -0.03758  -0.03833  -3.93099
    Y8       -3.30711  -0.00843   0.00000   0.07714   0.07579  -3.23133
    Z8        0.00000   0.00001   0.00000   0.00003   0.00004   0.00004
    X9       -5.25986   0.04731   0.00000   0.02840   0.02761  -5.23225
    Y9       -5.25282   0.09623   0.00000   0.15345   0.15212  -5.10070
    Z9       -0.00001  -0.00000   0.00000  -0.00001  -0.00000  -0.00001
   X10       -4.86268  -0.02058   0.00000  -0.03404  -0.03474  -4.89743
   Y10       -0.56336  -0.09383   0.00000  -0.21379  -0.21512  -0.77848
   Z10        0.00000   0.00000   0.00000  -0.00000   0.00000   0.00000
   X11       -8.74289   0.01842   0.00000   0.04989   0.04925  -8.69364
   Y11        2.18043  -0.01368   0.00000  -0.01934  -0.02060   2.15983
   Z11       -0.00001   0.00002   0.00000   0.00003   0.00003   0.00003
   X12      -10.76489  -0.00985   0.00000   0.01670   0.01606 -10.74884
   Y12        2.18045  -0.00080   0.00000  -0.01616  -0.01738   2.16308
   Z12       -0.00370  -0.00001   0.00000   0.00004   0.00004  -0.00367
   X13       -8.07190   0.00237   0.00000   0.01298   0.01235  -8.05955
   Y13        3.13254   0.00610   0.00000   0.01399   0.01272   3.14526
   Z13        1.65280   0.00644   0.00000   0.01104   0.01105   1.66385
   X14       -8.06586   0.00239   0.00000   0.01298   0.01236  -8.05350
   Y14        3.13467   0.00609   0.00000   0.01397   0.01270   3.14737
   Z14       -1.64912  -0.00644   0.00000  -0.01108  -0.01108  -1.66019
         Item               Value     Threshold  Converged?
 Maximum Force            0.096234     0.000450     NO 
 RMS     Force            0.024538     0.000300     NO 
 Maximum Displacement     0.215121     0.001800     NO 
 RMS     Displacement     0.046389     0.001200     NO 
 Predicted change in Energy=-3.008031D-02
 GradGradGradGradGradGradGradGradGradGradGradGradGradGradGradGradGradGrad

 1\1\ WCSS.PL-BEM-WN1505\Freq\RHF\3-21G\C4H8O2\ROOT\28-Feb-2019\0\\# fr
 eq hf/3-21g\\AcOEt\\0,1\C,-0.519906,-1.75006828,-0.00000358\H,-0.16325
 208,-2.75887656,0.00195517\H,-0.1632355,-1.24736756,-0.87463386\H,-0.1
 6323088,-1.24397389,0.8726655\C,-4.11322172,-0.29809818,0.\H,-4.469894
 28,-0.80249527,0.87365225\H,-4.46989479,-0.80249811,-0.8736504\C,-2.05
 9906,-1.75004931,0.\O,-2.78340063,-2.77967356,-0.00000488\O,-2.5732217
 2,-0.29811715,0.\C,-4.6265367,1.15383423,-0.00000272\H,-5.69653491,1.1
 5384668,-0.00196009\H,-4.27146302,1.65767033,0.87462398\H,-4.26826721,
 1.65879499,-0.8726754\\Version=ES64L-G09RevE.01\State=1-A\HF=-304.1368
 431\RMSD=4.135e-09\RMSF=2.454e-02\ZeroPoint=0.1239053\Thermal=0.130115
 7\Dipole=0.248808,0.5043219,-0.0001544\DipoleDeriv=-0.2156868,-0.00957
 04,0.0001732,0.0916255,-0.1068783,-0.000062,0.0002252,0.0000986,-0.013
 9243,0.0075629,0.0462302,-0.0000335,0.061001,-0.0429371,0.0002764,-0.0
 001019,0.0002159,0.1053674,0.0853565,-0.0112926,0.0159197,-0.0140822,0
 .0831166,0.0701615,0.0378265,0.0618171,0.0168556,0.0854982,-0.0113897,
 -0.0158841,-0.0142406,0.0825849,-0.0703845,-0.0378788,-0.0620938,0.017
 3664,0.9150968,-0.4075871,0.0000189,-0.0916417,0.3260404,-0.0001099,0.
 0000933,0.0000409,0.3702329,-0.0767528,0.0558728,0.0232948,-0.0158729,
 -0.0077689,0.0676702,0.0282419,0.0717662,-0.0629105,-0.0767946,0.05583
 08,-0.0232978,-0.0158098,-0.0077391,-0.0677118,-0.028252,-0.0717629,-0
 .0629469,1.29715,-0.1121527,-0.0001005,-0.6547783,1.6707985,-0.0000566
 ,-0.000076,-0.0000702,0.3916033,-0.7862264,-0.1757878,-0.0000266,0.149
 7059,-1.047943,0.0000355,-0.0000197,0.0000513,-0.3736225,-1.2089532,0.
 5382334,-0.0001446,0.4906766,-0.9842823,0.0000669,0.0000205,-0.0000293
 ,-0.4285597,-0.0374406,0.0977254,0.0001088,0.0219305,-0.0281757,0.0002
 002,-0.0002171,0.0002744,0.06518,-0.1378595,0.0304878,-0.0003562,0.015
 3817,0.0273998,-0.0001116,-0.0003143,-0.0000777,0.0838547,0.0746601,-0
 .0480754,-0.057258,-0.0117889,0.0178679,-0.0615975,-0.047818,-0.092036
 4,-0.0545888,0.0743895,-0.0485247,0.057586,-0.0121067,0.0179162,0.0616
 23,0.0482702,0.0918059,-0.0539076\Polar=51.9468697,-6.3700049,49.68010
 69,0.0000343,-0.0009983,32.9472577\PolarDeriv=5.8899532,-2.9557761,-1.
 2084371,0.0026677,0.0009022,-1.3060389,0.1651184,-4.0765531,3.6463531,
 0.0013258,-0.0184571,-3.2301715,0.0036728,0.0019458,-0.019393,-4.19974
 51,-3.3307129,0.0184741,2.2977788,-2.8072303,1.444007,0.0048917,-0.001
 6967,0.4630205,-2.4569007,3.4320937,-7.0851286,-0.0028132,0.0099246,0.
 0694699,0.0035509,-0.0037327,0.0074385,1.7777729,-1.7056685,0.0062364,
 2.50923,1.4238617,0.5702491,-2.3784425,-0.0949701,0.8475091,1.2082861,
 1.9744993,1.4967187,-0.4358164,-1.9888934,1.2719304,-1.854919,-0.40291
 97,-0.6336289,2.7391526,1.9393503,-4.9504105,2.5066444,1.4325978,0.571
 3168,2.3724498,0.0964916,0.8464765,1.2145449,1.9758905,1.5134432,0.437
 8748,1.9941945,1.2742597,1.847293,0.4051066,0.6428891,2.7337202,1.9472
 62,4.9282565,-9.7581927,5.0644599,-0.6047174,-0.0044649,0.0005729,3.44
 3673,-1.2948274,2.6988164,-3.6789649,-0.000771,-0.0007442,2.9331359,-0
 .0022107,-0.0014669,-0.0021162,2.185406,3.0371205,0.0036139,-1.962486,
 -1.3521498,-0.2050078,2.4485954,0.1609977,-1.142306,-0.5088233,-1.3543
 131,-1.3982226,0.2230131,1.9231875,-1.3423864,1.3936046,0.0353739,1.06
 20635,-1.8985836,-1.9346003,4.7423714,-1.960859,-1.3522898,-0.2039592,
 -2.4477606,-0.1616504,-1.1419371,-0.5088072,-1.3545938,-1.3977142,-0.2
 231555,-1.923417,-1.3418302,-1.3939808,-0.0343436,-1.0621135,-1.898419
 1,-1.934424,-4.7438911,-0.7632399,2.0987098,2.1029731,-0.0016929,-0.00
 14282,-0.8618809,-6.7767034,7.4744279,-2.535842,-0.0017285,0.0045044,0
 .3801107,0.000217,-0.0003645,0.0036716,1.3426681,2.0662355,-0.0034714,
 -4.0612141,-4.1024213,-1.3873529,0.0004707,0.0008535,0.3108426,-0.4940
 562,-2.9710951,-9.9212334,0.0007767,-0.0002137,-0.143316,0.0003847,0.0
 006627,-0.0002696,-1.4580283,-3.5033045,0.0008298,8.337246,-1.4823017,
 0.5382455,0.0007568,-0.000279,-0.7889349,7.7207456,-4.2537048,8.678225
 9,0.0009277,-0.0006698,0.0403556,0.0006096,-0.0006617,0.0003699,1.1103
 188,0.3292387,0.0003305,6.5309584,-0.9819524,-2.7631914,0.0163705,0.00
 49223,-2.5042119,1.1934539,-3.1749446,4.0609361,0.0051129,0.0023322,-2
 .9900708,0.0181805,0.0017972,0.0050022,-2.0728417,-4.0743422,-0.018131
 ,-10.0624064,2.0319209,-0.80166,-0.0111985,0.0003807,-0.0290269,0.4566
 796,-2.4794472,0.1672553,-0.0001046,-0.0052155,0.4462792,-0.0091371,0.
 0020439,-0.0027268,-2.31291,1.1434536,-0.0055077,0.2412744,1.4897367,0
 .9710974,1.9267983,0.2131822,0.9298816,0.0402163,1.0497295,3.223245,-0
 .1231685,2.762024,1.3168232,0.5121711,-0.0700196,1.7022851,0.9712414,3
 .0106607,5.0132997,0.2553129,1.4928346,0.9764371,-1.9294415,-0.2182785
 ,0.9329334,0.0410733,1.0591945,3.2309285,0.1185267,-2.7585565,1.315410
 4,-0.5194364,0.0665786,-1.7034718,0.9802478,3.0097311,-4.9920006\Hyper
 Polar=-66.0035675,12.1875048,36.0700574,-19.359082,-0.0851362,-0.03491
 82,0.0856918,9.4942948,31.5147317,-0.0057335\PG=C01 [X(C4H8O2)]\NImag=
 2\\0.44686153,-0.00306002,0.69998571,0.00004604,-0.00000509,0.65327507
 ,-0.08994481,0.09313287,-0.00019693,0.09673136,0.10072391,-0.34365669,
 0.00054860,-0.10724408,0.37118997,-0.00020726,0.00054924,-0.05734568,0
 .00020366,-0.00060451,0.05572705,-0.08876904,-0.04636507,0.08943958,0.
 00536622,0.00560490,-0.01293556,0.09622092,-0.04738929,-0.12450719,0.1
 2639699,-0.01398293,-0.01543429,0.03129018,0.05535450,0.13141016,0.087
 46121,0.12615562,-0.26669484,-0.00185316,-0.00126545,0.00177194,-0.094
 50771,-0.13893089,0.28792372,-0.08877777,-0.04668204,-0.08923580,0.005
 36512,0.00565372,0.01291548,0.00605026,0.00794006,0.01155576,0.0962324
 2,-0.04773080,-0.12552420,-0.12694749,-0.01397813,-0.01554818,-0.03121
 928,0.00789541,0.00974200,0.01661075,0.05571746,0.13252511,-0.08729084
 ,-0.12669887,-0.26572575,0.00190988,0.00133232,0.00189278,-0.01158777,
 -0.01674449,-0.02526921,0.09428556,0.13953070,0.28684961,0.00291021,-0
 .00488975,0.00000052,0.00170580,-0.00038219,-0.00000032,-0.00009804,-0
 .00009285,0.00013691,-0.00010081,-0.00009423,-0.00013681,0.40623970,0.
 00044820,-0.00741147,0.00000370,0.00190520,0.00012699,-0.00000084,-0.0
 0010366,0.00017010,-0.00033866,-0.00010468,0.00017111,0.00033843,0.057
 03980,0.58135608,-0.00000309,-0.00000077,0.00259461,0.00000050,0.00000
 150,0.00045415,-0.00063488,-0.00002154,0.00013189,0.00063477,0.0000232
 6,0.00013285,-0.00000933,0.00001259,0.73998197,-0.00007351,0.00074618,
 -0.00037740,-0.00021886,0.00008956,-0.00008148,0.00026638,-0.00002263,
 -0.00011667,-0.00004934,-0.00005545,0.00004364,-0.08330013,-0.04575978
 ,0.07884567,0.10056450,-0.00001652,-0.00003803,0.00023605,-0.00000623,
 -0.00001491,-0.00000123,-0.00007097,-0.00002887,-0.00000342,-0.0000198
 1,0.00000036,-0.00000108,-0.04812084,-0.12902905,0.12165037,0.04754095
 ,0.13947779,-0.00007089,-0.00044461,-0.00017462,0.00009307,0.00000289,
 -0.00001022,-0.00006243,0.00001910,-0.00000889,-0.00007562,0.00000561,
 -0.00000293,0.08054922,0.12088990,-0.28182447,-0.08608196,-0.13351883,
 0.29392048,-0.00007459,0.00074540,0.00037637,-0.00021853,0.00008998,0.
 00008200,-0.00005090,-0.00005482,-0.00004301,0.00026777,-0.00002214,0.
 00011715,-0.08329222,-0.04576955,-0.07885047,0.00750269,0.00626970,0.0
 0971576,0.10057532,-0.00001634,-0.00003836,-0.00023639,-0.00000628,-0.
 00001482,0.00000138,-0.00001953,0.00000030,0.00000107,-0.00007106,-0.0
 0002872,0.00000338,-0.04812498,-0.12903694,-0.12164926,0.00627050,0.01
 087014,0.01709093,0.04753334,0.13947203,0.00007113,0.00044429,-0.00017
 529,-0.00009303,-0.00000292,-0.00001016,0.00007539,-0.00000563,-0.0000
 0275,0.00006250,-0.00001896,-0.00000881,-0.08054641,-0.12087943,-0.281
 82337,-0.00971687,-0.01709136,-0.02605973,0.08607931,0.13352554,0.2939
 1688,-0.14981337,0.00600447,-0.00002584,-0.01415656,-0.00380518,0.0000
 1433,-0.01477667,-0.00124730,-0.00114651,-0.01476749,-0.00123944,0.001
 16057,-0.02503340,0.05010592,0.00000250,0.00033097,0.00083979,0.001613
 95,0.00033112,0.00083960,-0.00161390,0.65817951,0.00200178,-0.08994760
 ,0.00000260,0.04361051,0.00053347,-0.00000827,-0.02396505,-0.00159883,
 -0.00082815,-0.02410814,-0.00159510,0.00083981,0.04386109,-0.00658018,
 0.00000148,-0.00974543,0.00224137,0.00217326,-0.00974445,0.00224098,-0
 .00217388,0.18367098,0.51426586,0.00000296,-0.00000574,-0.10494019,-0.
 00008064,-0.00001519,-0.00339116,0.03795065,-0.00240711,0.00397493,-0.
 03785984,0.00242763,0.00395836,0.00000265,-0.00000156,0.00216189,0.002
 15175,-0.00069286,-0.00042645,-0.00215273,0.00069315,-0.00042624,0.000
 00147,-0.00001122,0.28168518,-0.02024880,-0.04105474,-0.00000806,0.005
 09282,-0.00037338,0.00000100,-0.00602870,-0.00074641,-0.00136601,-0.00
 605573,-0.00074077,0.00137213,-0.00628617,-0.00162971,-0.00000098,0.00
 213272,-0.00049707,-0.00238780,0.00213251,-0.00049682,0.00238794,-0.30
 208407,-0.18508352,-0.00000812,0.30243571,-0.00598541,-0.00530997,0.00
 001109,-0.00316912,0.00147151,-0.00000498,0.00005756,0.00110292,-0.001
 13583,0.00006105,0.00111115,0.00112889,-0.01993811,0.00052729,-0.00000
 128,0.00362478,-0.00056720,-0.00009542,0.00362436,-0.00056696,0.000095
 70,-0.20948473,-0.37852824,0.00000278,0.23403214,0.43993388,-0.0000044
 9,0.00001844,0.02846787,0.00001322,-0.00000169,-0.00072641,-0.00438929
 ,0.00017895,-0.00185468,0.00437643,-0.00019643,-0.00185223,-0.00000014
 ,0.00000044,-0.00419037,-0.00086273,0.00012478,0.00081491,0.00086303,-
 0.00012489,0.00081503,-0.00000533,0.00000319,-0.10603601,0.00000624,-0
 .00000055,0.06801639,-0.01187583,0.03822499,-0.00001724,-0.00879387,-0
 .00033204,0.00000745,0.00173572,0.00028295,-0.00018640,0.00175012,0.00
 028957,0.00019167,-0.12052317,-0.04167784,-0.00000622,-0.03325739,0.00
 223461,-0.00132330,-0.03325685,0.00223284,0.00132269,-0.12917555,-0.01
 149881,-0.00000598,0.02562499,-0.00438151,0.00000337,0.32367740,0.0008
 0681,-0.00363900,-0.00001015,-0.00024038,0.00131755,-0.00000146,0.0015
 8254,-0.00085796,-0.00024518,0.00158414,-0.00085520,0.00025108,-0.0045
 0262,-0.09118708,-0.00000315,-0.01280609,0.00105987,-0.00357306,-0.012
 80765,0.00106132,0.00357409,-0.02340512,-0.04182614,0.00000960,-0.0050
 1791,-0.05946945,-0.00000200,0.01279329,0.19180457,-0.00000498,-0.0000
 1335,0.01072029,0.00000353,0.00000445,0.00164850,-0.00333493,0.0002293
 0,0.00002657,0.00332778,-0.00022060,0.00002409,-0.00000007,-0.00000413
 ,-0.07604528,0.02731717,-0.00265824,0.00808466,-0.02731626,0.00265783,
 0.00808605,0.00000184,0.00000438,-0.07641126,0.00000294,-0.00000179,0.
 01583982,0.00001273,-0.00000691,0.10565461,-0.00025979,0.00323950,-0.0
 0000162,-0.00093692,0.00000756,0.00000069,0.00010623,-0.00005726,0.000
 04362,0.00010789,-0.00005748,-0.00004310,-0.08855656,0.00907178,0.0000
 2140,0.00591905,-0.01052562,-0.00104300,0.00588677,-0.01050457,0.00104
 281,-0.00930579,-0.00927866,-0.00000090,0.00383696,0.00176510,-0.00000
 120,-0.01962341,0.04231744,-0.00000269,0.66023926,0.00011592,0.0008306
 1,-0.00000048,-0.00027431,0.00001810,0.00000007,0.00002026,0.00000284,
 -0.00001364,0.00002078,0.00000278,0.00001374,0.01506964,-0.17542920,-0
 .00000595,0.00840929,-0.02035572,-0.00280082,0.00840931,-0.02034392,0.
 00279153,-0.00282331,-0.00115252,0.00000159,0.00109225,0.00087227,-0.0
 0000070,0.00010614,0.00491976,0.00000721,0.07434297,0.51385405,-0.0000
 0024,0.00000305,0.00009660,-0.00000074,0.00000013,-0.00001704,-0.00001
 150,-0.00001398,-0.00000323,0.00001139,0.00001364,-0.00000299,0.000005
 06,-0.00004325,-0.10328919,-0.01221639,0.03318252,0.00332844,0.0122221
 8,-0.03319659,0.00333010,-0.00000426,-0.00000960,-0.00050824,0.0000019
 2,0.00000667,0.00091082,-0.00001171,0.00001961,0.00099082,-0.00000379,
 0.00001859,0.69104525,0.00001866,0.00029835,0.00000001,-0.00009275,-0.
 00000079,0.00000006,0.00001044,-0.00001779,-0.00000273,0.00001079,-0.0
 0001784,0.00000278,-0.01159317,-0.00299362,-0.00001860,0.00047783,0.00
 042193,-0.00056827,0.00048501,0.00041858,0.00057320,-0.00032621,-0.001
 42615,-0.00000113,0.00024035,0.00054557,0.00000035,0.00049785,0.003196
 06,-0.00000059,-0.37215702,-0.00147305,-0.00058156,0.40538368,0.000065
 53,-0.00097552,0.00000039,0.00030428,0.00000003,-0.00000021,-0.0000287
 2,0.00000991,-0.00001314,-0.00002934,0.00000995,0.00001299,0.03919392,
 0.00233726,0.00006601,-0.00089552,0.00141643,0.00084278,-0.00088556,0.
 00142809,-0.00084450,0.00228244,0.00302488,0.00000014,-0.00088041,-0.0
 0085823,0.00000002,0.00328323,-0.00914034,0.00000134,-0.00307787,-0.05
 621793,-0.00000400,0.00101621,0.05881324,0.00000023,-0.00000097,-0.000
 07025,0.00000028,-0.00000006,-0.00000039,0.00000999,0.00000334,0.00000
 143,-0.00000992,-0.00000331,0.00000134,0.00001113,-0.00000083,-0.00207
 698,-0.00003068,-0.00001149,-0.00012362,0.00003494,0.00001130,-0.00011
 799,0.00000144,0.00000268,0.00032995,-0.00000077,-0.00000175,-0.000102
 66,0.00000837,-0.00000734,0.00093241,-0.00059446,-0.00000451,-0.055006
 42,0.00064532,0.00001597,0.05322219,0.00002346,-0.00016968,0.00002299,
 0.00005036,-0.00001598,-0.00000537,-0.00000732,0.00001318,0.00001083,-
 0.00002567,0.00002053,-0.00001383,0.00394570,0.00971907,0.01342376,-0.
 00001337,-0.00116203,-0.00027925,-0.00027288,0.00310505,0.00007716,0.0
 0029830,0.00085220,-0.00009710,-0.00039581,-0.00037579,-0.00004802,0.0
 0160749,-0.00175008,-0.00009153,-0.09232236,-0.05122287,-0.08684390,-0
 .01141634,-0.02015377,-0.03427415,0.09376354,0.00001829,0.00011499,-0.
 00003789,-0.00002540,0.00000557,-0.00000136,-0.00000453,-0.00000537,0.
 00000278,0.00004232,-0.00000558,-0.00000426,-0.01445394,-0.02299446,-0
 .03649391,-0.00067623,0.00166860,0.00046880,0.00328251,-0.00670419,0.0
 0105870,-0.00086775,-0.00053594,0.00005351,0.00069675,0.00013910,0.000
 18438,-0.00077406,0.00339522,0.00163877,-0.04834701,-0.12334057,-0.117
 23903,0.00001260,0.00007341,0.00165927,0.05322181,0.13758301,0.0000267
 5,-0.00004397,-0.00001395,0.00002427,0.00000812,0.00000335,-0.00000833
 ,-0.00001134,-0.00001383,0.00000333,-0.00001702,0.00001689,0.00026489,
 0.00186852,0.00190070,0.00055096,-0.00041120,0.00106906,-0.00057492,0.
 00080987,0.00141519,0.00010392,0.00006712,0.00001437,0.00006956,0.0001
 6147,-0.00005129,0.00079925,-0.00006972,0.00022639,-0.08625159,-0.1207
 7471,-0.27090745,0.00046171,0.00191526,0.00144475,0.09626548,0.1325668
 7,0.29004076,0.00002367,-0.00017045,-0.00002262,0.00005061,-0.00001600
 ,0.00000532,-0.00002550,0.00002059,0.00001385,-0.00000757,0.00001329,-
 0.00001103,0.00398226,0.00974887,-0.01340501,-0.00028153,0.00311212,-0
 .00007947,-0.00001521,-0.00116033,0.00027807,0.00029920,0.00085364,0.0
 0009694,-0.00039677,-0.00037590,0.00004855,0.00161249,-0.00175043,0.00
 008507,-0.09293431,-0.05179302,0.08743353,-0.01153912,-0.02019443,0.03
 419828,0.00476490,0.00787463,-0.01173528,0.09446687,0.00001796,0.00011
 671,0.00003809,-0.00002601,0.00000569,0.00000127,0.00004235,-0.0000057
 4,0.00000412,-0.00000448,-0.00000546,-0.00000265,-0.01456495,-0.023020
 45,0.03642065,0.00327988,-0.00670080,-0.00106052,-0.00067045,0.0016610
 3,-0.00047318,-0.00087038,-0.00054204,-0.00005473,0.00069958,0.0001419
 3,-0.00018393,-0.00078335,0.00341689,-0.00163825,-0.04889587,-0.123660
 56,0.11726224,0.00001994,0.00007883,-0.00166229,0.00791835,0.01060620,
 -0.01606926,0.05383741,0.13790775,-0.00002654,0.00004273,-0.00001386,-
 0.00002393,-0.00000821,0.00000330,-0.00000321,0.00001712,0.00001696,0.
 00000819,0.00001152,-0.00001400,-0.00027730,-0.00184487,0.00189160,0.0
 0057499,-0.00080401,0.00141339,-0.00055335,0.00041266,0.00106108,-0.00
 010418,-0.00006340,0.00001486,-0.00006999,-0.00016500,-0.00005121,-0.0
 0079468,0.00006460,0.00022232,0.08683381,0.12076809,-0.26996746,-0.000
 51056,-0.00199303,0.00156624,0.01185294,0.01614336,-0.02514493,-0.0969
 0619,-0.13258156,0.28900173\\0.02580514,-0.00008075,-0.00003934,0.0013
 7337,0.00756172,-0.00000081,-0.00145835,-0.00699926,0.00618432,-0.0014
 4958,-0.00702421,-0.00614132,-0.02201105,-0.01518056,0.00001278,-0.003
 05565,0.00670272,-0.00458196,-0.00306644,0.00669907,0.00458981,0.04392
 388,0.00843405,-0.00001112,-0.04731185,-0.09623359,0.00000231,0.020576
 85,0.09383209,-0.00000118,-0.01841566,0.01367636,-0.00001999,0.0098526
 4,0.00079814,0.00001190,-0.00237314,-0.00609758,-0.00644101,-0.0023901
 7,-0.00608821,0.00643560\\\@


 I WISH TO HAVE NO CONNECTION WITH ANY SHIP THAT DOES NOT SAIL FAST,
 FOR I INTEND TO GO IN HARM'S WAY.
     -- JOHN PAUL JONES, USN 1747-1792
 Job cpu time:       0 days  0 hours  0 minutes  5.8 seconds.
 File lengths (MBytes):  RWF=     14 Int=      0 D2E=      0 Chk=      1 Scr=      1
 Normal termination of Gaussian 09 at Thu Feb 28 08:04:51 2019.
