 Entering Gaussian System, Link 0=/usr/local/gaussian/2009-E.01/g09/g09
 Initial command:
 /usr/local/gaussian/2009-E.01/g09/l1.exe "/scratch/pbs.8312969.achilles/Gau-61388.inp" -scrdir="/scratch/pbs.8312969.achilles/"
 Entering Link 1 = /usr/local/gaussian/2009-E.01/g09/l1.exe PID=     61389.
  
 Copyright (c) 1988,1990,1992,1993,1995,1998,2003,2009,2015,
            Gaussian, Inc.  All Rights Reserved.
  
 This is part of the Gaussian(R) 09 program.  It is based on
 the Gaussian(R) 03 system (copyright 2003, Gaussian, Inc.),
 the Gaussian(R) 98 system (copyright 1998, Gaussian, Inc.),
 the Gaussian(R) 94 system (copyright 1995, Gaussian, Inc.),
 the Gaussian 92(TM) system (copyright 1992, Gaussian, Inc.),
 the Gaussian 90(TM) system (copyright 1990, Gaussian, Inc.),
 the Gaussian 88(TM) system (copyright 1988, Gaussian, Inc.),
 the Gaussian 86(TM) system (copyright 1986, Carnegie Mellon
 University), and the Gaussian 82(TM) system (copyright 1983,
 Carnegie Mellon University). Gaussian is a federally registered
 trademark of Gaussian, Inc.
  
 This software contains proprietary and confidential information,
 including trade secrets, belonging to Gaussian, Inc.
  
 This software is provided under written license and may be
 used, copied, transmitted, or stored only in accord with that
 written license.
  
 The following legend is applicable only to US Government
 contracts under FAR:
  
                    RESTRICTED RIGHTS LEGEND
  
 Use, reproduction and disclosure by the US Government is
 subject to restrictions as set forth in subparagraphs (a)
 and (c) of the Commercial Computer Software - Restricted
 Rights clause in FAR 52.227-19.
  
 Gaussian, Inc.
 340 Quinnipiac St., Bldg. 40, Wallingford CT 06492
  
  
 ---------------------------------------------------------------
 Warning -- This program may not be used in any manner that
 competes with the business of Gaussian, Inc. or will provide
 assistance to any competitor of Gaussian, Inc.  The licensee
 of this program is prohibited from giving any competitor of
 Gaussian, Inc. access to this program.  By using this program,
 the user acknowledges that Gaussian, Inc. is engaged in the
 business of creating and licensing software in the field of
 computational chemistry and represents and warrants to the
 licensee that it is not a competitor of Gaussian, Inc. and that
 it will not use this program in any manner prohibited above.
 ---------------------------------------------------------------
  

 Cite this work as:
 Gaussian 09, Revision E.01,
 M. J. Frisch, G. W. Trucks, H. B. Schlegel, G. E. Scuseria, 
 M. A. Robb, J. R. Cheeseman, G. Scalmani, V. Barone, B. Mennucci, 
 G. A. Petersson, H. Nakatsuji, M. Caricato, X. Li, H. P. Hratchian, 
 A. F. Izmaylov, J. Bloino, G. Zheng, J. L. Sonnenberg, M. Hada, 
 M. Ehara, K. Toyota, R. Fukuda, J. Hasegawa, M. Ishida, T. Nakajima, 
 Y. Honda, O. Kitao, H. Nakai, T. Vreven, J. A. Montgomery, Jr., 
 J. E. Peralta, F. Ogliaro, M. Bearpark, J. J. Heyd, E. Brothers, 
 K. N. Kudin, V. N. Staroverov, T. Keith, R. Kobayashi, J. Normand, 
 K. Raghavachari, A. Rendell, J. C. Burant, S. S. Iyengar, J. Tomasi, 
 M. Cossi, N. Rega, J. M. Millam, M. Klene, J. E. Knox, J. B. Cross, 
 V. Bakken, C. Adamo, J. Jaramillo, R. Gomperts, R. E. Stratmann, 
 O. Yazyev, A. J. Austin, R. Cammi, C. Pomelli, J. W. Ochterski, 
 R. L. Martin, K. Morokuma, V. G. Zakrzewski, G. A. Voth, 
 P. Salvador, J. J. Dannenberg, S. Dapprich, A. D. Daniels, 
 O. Farkas, J. B. Foresman, J. V. Ortiz, J. Cioslowski, 
 and D. J. Fox, Gaussian, Inc., Wallingford CT, 2013.
 
 ******************************************
 Gaussian 09:  ES64L-G09RevE.01 30-Nov-2015
                28-Feb-2019 
 ******************************************
 Default route:  MAXDISK=1700GB
 -------------------
 # opt freq hf/3-21g
 -------------------
 1/18=20,19=15,38=1/1,3;
 2/9=110,12=2,17=6,18=5,40=1/2;
 3/5=5,11=9,16=1,25=1,30=1,71=1/1,2,3;
 4//1;
 5/5=2,38=5/2;
 6/7=2,8=2,9=2,10=2,28=1/1;
 7//1,2,3,16;
 1/18=20,19=15/3(2);
 2/9=110/2;
 99//99;
 2/9=110/2;
 3/5=5,11=9,16=1,25=1,30=1,71=1/1,2,3;
 4/5=5,16=3,69=1/1;
 5/5=2,38=5/2;
 7//1,2,3,16;
 1/18=20,19=15/3(-5);
 2/9=110/2;
 6/7=2,8=2,9=2,10=2,19=2,28=1/1;
 99/9=1/99;
 -----
 AcOEt
 -----
 Symbolic Z-matrix:
 Charge =  0 Multiplicity = 1
 C                    -0.51991  -1.75007  0. 
 H                    -0.16325  -2.75888   0.00196 
 H                    -0.16324  -1.24737  -0.87463 
 H                    -0.16323  -1.24397   0.87267 
 C                    -4.11322  -0.2981    0. 
 H                    -4.46989  -0.8025    0.87365 
 H                    -4.46989  -0.8025   -0.87365 
 C                    -2.05991  -1.75005   0. 
 O                    -2.7834   -2.77967  0. 
 O                    -2.57322  -0.29812   0. 
 C                    -4.62654   1.15383  0. 
 H                    -5.69653   1.15385  -0.00196 
 H                    -4.27146   1.65767   0.87462 
 H                    -4.26827   1.65879  -0.87268 
 

 GradGradGradGradGradGradGradGradGradGradGradGradGradGradGradGradGradGrad
 Berny optimization.
 Initialization pass.
                           ----------------------------
                           !    Initial Parameters    !
                           ! (Angstroms and Degrees)  !
 --------------------------                            --------------------------
 ! Name  Definition              Value          Derivative Info.                !
 --------------------------------------------------------------------------------
 ! R1    R(1,2)                  1.07           estimate D2E/DX2                !
 ! R2    R(1,3)                  1.07           estimate D2E/DX2                !
 ! R3    R(1,4)                  1.07           estimate D2E/DX2                !
 ! R4    R(1,8)                  1.54           estimate D2E/DX2                !
 ! R5    R(5,6)                  1.07           estimate D2E/DX2                !
 ! R6    R(5,7)                  1.07           estimate D2E/DX2                !
 ! R7    R(5,10)                 1.54           estimate D2E/DX2                !
 ! R8    R(5,11)                 1.54           estimate D2E/DX2                !
 ! R9    R(8,9)                  1.2584         estimate D2E/DX2                !
 ! R10   R(8,10)                 1.54           estimate D2E/DX2                !
 ! R11   R(11,12)                1.07           estimate D2E/DX2                !
 ! R12   R(11,13)                1.07           estimate D2E/DX2                !
 ! R13   R(11,14)                1.07           estimate D2E/DX2                !
 ! A1    A(2,1,3)              109.4713         estimate D2E/DX2                !
 ! A2    A(2,1,4)              109.4712         estimate D2E/DX2                !
 ! A3    A(2,1,8)              109.4712         estimate D2E/DX2                !
 ! A4    A(3,1,4)              109.4712         estimate D2E/DX2                !
 ! A5    A(3,1,8)              109.4712         estimate D2E/DX2                !
 ! A6    A(4,1,8)              109.4712         estimate D2E/DX2                !
 ! A7    A(6,5,7)              109.4712         estimate D2E/DX2                !
 ! A8    A(6,5,10)             109.4712         estimate D2E/DX2                !
 ! A9    A(6,5,11)             109.4713         estimate D2E/DX2                !
 ! A10   A(7,5,10)             109.4712         estimate D2E/DX2                !
 ! A11   A(7,5,11)             109.4712         estimate D2E/DX2                !
 ! A12   A(10,5,11)            109.4712         estimate D2E/DX2                !
 ! A13   A(1,8,9)              125.0942         estimate D2E/DX2                !
 ! A14   A(1,8,10)             109.4712         estimate D2E/DX2                !
 ! A15   A(9,8,10)             125.4346         estimate D2E/DX2                !
 ! A16   A(5,10,8)             109.4712         estimate D2E/DX2                !
 ! A17   A(5,11,12)            109.4711         estimate D2E/DX2                !
 ! A18   A(5,11,13)            109.4713         estimate D2E/DX2                !
 ! A19   A(5,11,14)            109.4712         estimate D2E/DX2                !
 ! A20   A(12,11,13)           109.4713         estimate D2E/DX2                !
 ! A21   A(12,11,14)           109.4712         estimate D2E/DX2                !
 ! A22   A(13,11,14)           109.4712         estimate D2E/DX2                !
 ! D1    D(2,1,8,9)             -0.1117         estimate D2E/DX2                !
 ! D2    D(2,1,8,10)           179.8888         estimate D2E/DX2                !
 ! D3    D(3,1,8,9)            119.8884         estimate D2E/DX2                !
 ! D4    D(3,1,8,10)           -60.1112         estimate D2E/DX2                !
 ! D5    D(4,1,8,9)           -120.1117         estimate D2E/DX2                !
 ! D6    D(4,1,8,10)            59.8888         estimate D2E/DX2                !
 ! D7    D(6,5,10,8)            60.0001         estimate D2E/DX2                !
 ! D8    D(7,5,10,8)           -59.9999         estimate D2E/DX2                !
 ! D9    D(11,5,10,8)         -179.9999         estimate D2E/DX2                !
 ! D10   D(6,5,11,12)          -60.1112         estimate D2E/DX2                !
 ! D11   D(6,5,11,13)           59.8888         estimate D2E/DX2                !
 ! D12   D(6,5,11,14)          179.8889         estimate D2E/DX2                !
 ! D13   D(7,5,11,12)           59.8888         estimate D2E/DX2                !
 ! D14   D(7,5,11,13)          179.8889         estimate D2E/DX2                !
 ! D15   D(7,5,11,14)          -60.1111         estimate D2E/DX2                !
 ! D16   D(10,5,11,12)         179.8888         estimate D2E/DX2                !
 ! D17   D(10,5,11,13)         -60.1111         estimate D2E/DX2                !
 ! D18   D(10,5,11,14)          59.8889         estimate D2E/DX2                !
 ! D19   D(1,8,10,5)           179.9999         estimate D2E/DX2                !
 ! D20   D(9,8,10,5)             0.0003         estimate D2E/DX2                !
 --------------------------------------------------------------------------------
 Trust Radius=3.00D-01 FncErr=1.00D-07 GrdErr=1.00D-07
 Number of steps in this run=     65 maximum allowed number of steps=    100.
 GradGradGradGradGradGradGradGradGradGradGradGradGradGradGradGradGradGrad

                          Input orientation:                          
 ---------------------------------------------------------------------
 Center     Atomic      Atomic             Coordinates (Angstroms)
 Number     Number       Type             X           Y           Z
 ---------------------------------------------------------------------
      1          6           0       -0.519906   -1.750068   -0.000004
      2          1           0       -0.163252   -2.758877    0.001955
      3          1           0       -0.163236   -1.247368   -0.874634
      4          1           0       -0.163231   -1.243974    0.872666
      5          6           0       -4.113222   -0.298098    0.000000
      6          1           0       -4.469894   -0.802495    0.873652
      7          1           0       -4.469895   -0.802498   -0.873650
      8          6           0       -2.059906   -1.750049    0.000000
      9          8           0       -2.783401   -2.779674   -0.000005
     10          8           0       -2.573222   -0.298117    0.000000
     11          6           0       -4.626537    1.153834   -0.000003
     12          1           0       -5.696535    1.153847   -0.001960
     13          1           0       -4.271463    1.657670    0.874624
     14          1           0       -4.268267    1.658795   -0.872675
 ---------------------------------------------------------------------
                    Distance matrix (angstroms):
                    1          2          3          4          5
     1  C    0.000000
     2  H    1.070000   0.000000
     3  H    1.070000   1.747303   0.000000
     4  H    1.070000   1.747303   1.747303   0.000000
     5  C    3.875582   4.653783   4.155537   4.154354   0.000000
     6  H    4.154946   4.809829   4.669232   4.329232   1.070000
     7  H    4.154944   4.810538   4.329576   4.668177   1.070000
     8  C    1.540000   2.148263   2.148263   2.148263   2.514810
     9  O    2.486663   2.620232   3.158829   3.159939   2.815429
    10  O    2.514810   3.444313   2.733879   2.732077   1.540000
    11  C    5.029619   5.935505   5.143132   5.141219   1.540000
    12  H    5.935504   6.776919   6.094653   6.093600   2.148262
    13  H    5.143135   6.094656   5.326977   5.029624   2.148264
    14  H    5.141217   6.093599   5.029619   5.321993   2.148263
                    6          7          8          9         10
     6  H    0.000000
     7  H    1.747303   0.000000
     8  C    2.732978   2.732977   0.000000
     9  O    2.741673   2.741668   1.258400   0.000000
    10  O    2.148263   2.148263   1.540000   2.490441   0.000000
    11  C    2.148263   2.148263   3.875582   4.343919   2.514809
    12  H    2.469538   2.468152   4.653782   4.894787   3.444312
    13  H    2.468155   3.024610   4.155539   4.761232   2.733879
    14  H    3.024610   2.469538   4.154352   4.760923   2.732077
                   11         12         13         14
    11  C    0.000000
    12  H    1.070000   0.000000
    13  H    1.070000   1.747303   0.000000
    14  H    1.070000   1.747303   1.747303   0.000000
 Stoichiometry    C4H8O2
 Framework group  C1[X(C4H8O2)]
 Deg. of freedom    36
 Full point group                 C1      NOp   1
 Largest Abelian subgroup         C1      NOp   1
 Largest concise Abelian subgroup C1      NOp   1
                         Standard orientation:                         
 ---------------------------------------------------------------------
 Center     Atomic      Atomic             Coordinates (Angstroms)
 Number     Number       Type             X           Y           Z
 ---------------------------------------------------------------------
      1          6           0        2.278632   -0.862744    0.000002
      2          1           0        3.212645   -0.340712   -0.001957
      3          1           0        2.214503   -1.475776    0.874632
      4          1           0        2.212265   -1.478328   -0.872668
      5          6           0       -1.378572    0.419829   -0.000002
      6          1           0       -1.313323    1.034137   -0.873654
      7          1           0       -1.313322    1.034140    0.873648
      8          6           0        1.122171    0.154211   -0.000002
      9          8           0        1.258802    1.405172    0.000003
     10          8           0       -0.222110   -0.597126   -0.000002
     11          6           0       -2.722853   -0.331509    0.000001
     12          1           0       -3.526366    0.375076    0.001958
     13          1           0       -2.788932   -0.944340   -0.874626
     14          1           0       -2.787274   -0.947295    0.872673
 ---------------------------------------------------------------------
 Rotational constants (GHZ):      8.0348841      1.8587454      1.5523386
 Standard basis: 3-21G (6D, 7F)
 There are    70 symmetry adapted cartesian basis functions of A   symmetry.
 There are    70 symmetry adapted basis functions of A   symmetry.
    70 basis functions,   114 primitive gaussians,    70 cartesian basis functions
    24 alpha electrons       24 beta electrons
       nuclear repulsion energy       232.8414879617 Hartrees.
 NAtoms=   14 NActive=   14 NUniq=   14 SFac= 1.00D+00 NAtFMM=   60 NAOKFM=F Big=F
 Integral buffers will be    131072 words long.
 Raffenetti 1 integral format.
 Two-electron integral symmetry is turned on.
 One-electron integrals computed using PRISM.
 NBasis=    70 RedAO= T EigKep=  1.43D-02  NBF=    70
 NBsUse=    70 1.00D-06 EigRej= -1.00D+00 NBFU=    70
 ExpMin= 1.83D-01 ExpMax= 3.22D+02 ExpMxC= 3.22D+02 IAcc=1 IRadAn=         1 AccDes= 0.00D+00
 Harris functional with IExCor=  205 and IRadAn=       1 diagonalized for initial guess.
 HarFok:  IExCor=  205 AccDes= 0.00D+00 IRadAn=         1 IDoV= 1 UseB2=F ITyADJ=14
 ICtDFT=  3500011 ScaDFX=  1.000000  1.000000  1.000000  1.000000
 FoFCou: FMM=F IPFlag=           0 FMFlag=      100000 FMFlg1=           0
         NFxFlg=           0 DoJE=T BraDBF=F KetDBF=T FulRan=T
         wScrn=  0.000000 ICntrl=     500 IOpCl=  0 I1Cent=   200000004 NGrid=           0
         NMat0=    1 NMatS0=      1 NMatT0=    0 NMatD0=    1 NMtDS0=    0 NMtDT0=    0
 Petite list used in FoFCou.
 Keep R1 ints in memory in canonical form, NReq=3951444.
 Requested convergence on RMS density matrix=1.00D-08 within 128 cycles.
 Requested convergence on MAX density matrix=1.00D-06.
 Requested convergence on             energy=1.00D-06.
 No special actions if energy rises.
 SCF Done:  E(RHF) =  -304.136843147     A.U. after   14 cycles
            NFock= 14  Conv=0.41D-08     -V/T= 2.0045

 **********************************************************************

            Population analysis using the SCF density.

 **********************************************************************

 Orbital symmetries:
       Occupied  (A) (A) (A) (A) (A) (A) (A) (A) (A) (A) (A) (A)
                 (A) (A) (A) (A) (A) (A) (A) (A) (A) (A) (A) (A)
       Virtual   (A) (A) (A) (A) (A) (A) (A) (A) (A) (A) (A) (A)
                 (A) (A) (A) (A) (A) (A) (A) (A) (A) (A) (A) (A)
                 (A) (A) (A) (A) (A) (A) (A) (A) (A) (A) (A) (A)
                 (A) (A) (A) (A) (A) (A) (A) (A) (A) (A)
 The electronic state is 1-A.
 Alpha  occ. eigenvalues --  -20.48631 -20.47274 -11.35309 -11.22902 -11.18918
 Alpha  occ. eigenvalues --  -11.16027  -1.40003  -1.31131  -1.03992  -1.00975
 Alpha  occ. eigenvalues --   -0.85124  -0.75365  -0.66381  -0.65794  -0.63075
 Alpha  occ. eigenvalues --   -0.61616  -0.58415  -0.56033  -0.54385  -0.52026
 Alpha  occ. eigenvalues --   -0.49969  -0.49188  -0.44147  -0.42891
 Alpha virt. eigenvalues --    0.15586   0.26220   0.28205   0.29632   0.33227
 Alpha virt. eigenvalues --    0.33376   0.34536   0.34907   0.35823   0.37743
 Alpha virt. eigenvalues --    0.37785   0.42056   0.45317   0.58210   0.90113
 Alpha virt. eigenvalues --    0.91646   0.93534   0.94440   0.97726   0.99124
 Alpha virt. eigenvalues --    1.01315   1.02815   1.04045   1.08711   1.13974
 Alpha virt. eigenvalues --    1.23805   1.27685   1.33263   1.34923   1.35492
 Alpha virt. eigenvalues --    1.37134   1.38003   1.43390   1.47210   1.63228
 Alpha virt. eigenvalues --    1.85166   1.90698   1.94191   1.98245   2.00915
 Alpha virt. eigenvalues --    2.06052   2.19675   2.29798   2.35839   3.40064
 Alpha virt. eigenvalues --    3.51848
          Condensed to atoms (all electrons):
               1          2          3          4          5          6
     1  C    5.523057   0.356806   0.359944   0.359875   0.002796   0.000040
     2  H    0.356806   0.467265  -0.019432  -0.019445  -0.000080   0.000002
     3  H    0.359944  -0.019432   0.448344  -0.017311  -0.000061   0.000004
     4  H    0.359875  -0.019445  -0.017311   0.448399  -0.000062  -0.000013
     5  C    0.002796  -0.000080  -0.000061  -0.000062   5.140215   0.362752
     6  H    0.000040   0.000002   0.000004  -0.000013   0.362752   0.524390
     7  H    0.000039   0.000002  -0.000012   0.000004   0.362764  -0.037777
     8  C    0.206363  -0.043109  -0.035212  -0.035199  -0.055075  -0.004291
     9  O   -0.067630   0.002597   0.000901   0.000906   0.002130   0.002734
    10  O   -0.051722   0.001291   0.001927   0.001943   0.203397  -0.026638
    11  C   -0.000005   0.000000  -0.000002  -0.000002   0.241136  -0.047277
    12  H    0.000001  -0.000000  -0.000000  -0.000000  -0.044993   0.000307
    13  H   -0.000002   0.000000   0.000000   0.000000  -0.042852  -0.003255
    14  H   -0.000002   0.000000   0.000000   0.000000  -0.042840   0.003469
               7          8          9         10         11         12
     1  C    0.000039   0.206363  -0.067630  -0.051722  -0.000005   0.000001
     2  H    0.000002  -0.043109   0.002597   0.001291   0.000000  -0.000000
     3  H   -0.000012  -0.035212   0.000901   0.001927  -0.000002  -0.000000
     4  H    0.000004  -0.035199   0.000906   0.001943  -0.000002  -0.000000
     5  C    0.362764  -0.055075   0.002130   0.203397   0.241136  -0.044993
     6  H   -0.037777  -0.004291   0.002734  -0.026638  -0.047277   0.000307
     7  H    0.524388  -0.004290   0.002734  -0.026636  -0.047286   0.000293
     8  C   -0.004290   4.535309   0.464750   0.219049   0.003133  -0.000062
     9  O    0.002734   0.464750   8.201860  -0.029274   0.000100   0.000002
    10  O   -0.026636   0.219049  -0.029274   8.331025  -0.025048   0.001080
    11  C   -0.047286   0.003133   0.000100  -0.025048   5.391889   0.367417
    12  H    0.000293  -0.000062   0.000002   0.001080   0.367417   0.512900
    13  H    0.003468  -0.000065  -0.000001   0.001113   0.374377  -0.023574
    14  H   -0.003234  -0.000065  -0.000001   0.001117   0.374328  -0.023554
              13         14
     1  C   -0.000002  -0.000002
     2  H    0.000000   0.000000
     3  H    0.000000   0.000000
     4  H    0.000000   0.000000
     5  C   -0.042852  -0.042840
     6  H   -0.003255   0.003469
     7  H    0.003468  -0.003234
     8  C   -0.000065  -0.000065
     9  O   -0.000001  -0.000001
    10  O    0.001113   0.001117
    11  C    0.374377   0.374328
    12  H   -0.023574  -0.023554
    13  H    0.490046  -0.024224
    14  H   -0.024224   0.489949
 Mulliken charges:
               1
     1  C   -0.689559
     2  H    0.254102
     3  H    0.260910
     4  H    0.260904
     5  C   -0.129229
     6  H    0.225552
     7  H    0.225543
     8  C    0.748764
     9  O   -0.581810
    10  O   -0.602624
    11  C   -0.632760
    12  H    0.210183
    13  H    0.224967
    14  H    0.225056
 Sum of Mulliken charges =  -0.00000
 Mulliken charges with hydrogens summed into heavy atoms:
               1
     1  C    0.086357
     5  C    0.321867
     8  C    0.748764
     9  O   -0.581810
    10  O   -0.602624
    11  C    0.027446
 Electronic spatial extent (au):  <R**2>=            785.2314
 Charge=             -0.0000 electrons
 Dipole moment (field-independent basis, Debye):
    X=             -0.3716    Y=             -1.3802    Z=              0.0004  Tot=              1.4294
 Quadrupole moment (field-independent basis, Debye-Ang):
   XX=            -30.7977   YY=            -41.7500   ZZ=            -35.8506
   XY=             -6.2784   XZ=              0.0004   YZ=             -0.0006
 Traceless Quadrupole moment (field-independent basis, Debye-Ang):
   XX=              5.3351   YY=             -5.6173   ZZ=              0.2822
   XY=             -6.2784   XZ=              0.0004   YZ=             -0.0006
 Octapole moment (field-independent basis, Debye-Ang**2):
  XXX=              6.6943  YYY=             -4.5898  ZZZ=              0.0013  XYY=             -3.5828
  XXY=             -5.5306  XXZ=              0.0021  XZZ=              1.7515  YZZ=              0.1802
  YYZ=              0.0009  XYZ=             -0.0036
 Hexadecapole moment (field-independent basis, Debye-Ang**3):
 XXXX=           -762.1859 YYYY=           -185.9265 ZZZZ=            -49.0675 XXXY=            -10.8954
 XXXZ=             -0.0216 YYYX=             -7.9337 YYYZ=              0.0031 ZZZX=              0.0234
 ZZZY=             -0.0041 XXYY=           -164.1714 XXZZ=           -139.4684 YYZZ=            -33.6816
 XXYZ=             -0.0043 YYXZ=             -0.0082 ZZXY=              0.7242
 N-N= 2.328414879617D+02 E-N=-1.178928036022D+03  KE= 3.027627719153D+02
 Calling FoFJK, ICntrl=      2127 FMM=F ISym2X=0 I1Cent= 0 IOpClX= 0 NMat=1 NMatS=1 NMatT=0.
 ***** Axes restored to original set *****
 -------------------------------------------------------------------
 Center     Atomic                   Forces (Hartrees/Bohr)
 Number     Number              X              Y              Z
 -------------------------------------------------------------------
      1        6          -0.025805136    0.000080747    0.000039338
      2        1          -0.001373374   -0.007561715    0.000000808
      3        1           0.001458349    0.006999259   -0.006184315
      4        1           0.001449581    0.007024212    0.006141318
      5        6           0.022011048    0.015180558   -0.000012776
      6        1           0.003055646   -0.006702722    0.004581962
      7        1           0.003066436   -0.006699072   -0.004589814
      8        6          -0.043923879   -0.008434054    0.000011123
      9        8           0.047311848    0.096233587   -0.000002315
     10        8          -0.020576849   -0.093832091    0.000001177
     11        6           0.018415662   -0.013676361    0.000019986
     12        1          -0.009852642   -0.000798140   -0.000011898
     13        1           0.002373145    0.006097581    0.006441012
     14        1           0.002390166    0.006088211   -0.006435604
 -------------------------------------------------------------------
 Cartesian Forces:  Max     0.096233587 RMS     0.024538137

 GradGradGradGradGradGradGradGradGradGradGradGradGradGradGradGradGradGrad
 Berny optimization.
 FormGI is forming the generalized inverse of G from B-inverse, IUseBI=4.
 GSVD:  received Info=                   1 from GESDD.
 Internal  Forces:  Max     0.105939529 RMS     0.021218906
 Search for a local minimum.
 Step number   1 out of a maximum of   65
 All quantities printed in internal units (Hartrees-Bohrs-Radians)
 Mixed Optimization -- RFO/linear search
 Second derivative matrix not updated -- first step.
 ITU=  0
     Eigenvalues ---    0.00230   0.00230   0.00235   0.00237   0.00237
     Eigenvalues ---    0.04987   0.05720   0.05720   0.05767   0.07243
     Eigenvalues ---    0.07243   0.10913   0.13572   0.16000   0.16000
     Eigenvalues ---    0.16000   0.16000   0.16000   0.16000   0.22064
     Eigenvalues ---    0.25000   0.25000   0.25000   0.28519   0.28519
     Eigenvalues ---    0.28519   0.28519   0.37230   0.37230   0.37230
     Eigenvalues ---    0.37230   0.37230   0.37230   0.37230   0.37230
     Eigenvalues ---    0.80209
 RFO step:  Lambda=-5.39807786D-02 EMin= 2.30000000D-03
 Linear search not attempted -- first point.
 Maximum step size (   0.300) exceeded in Quadratic search.
    -- Step size scaled by   0.808
 Iteration  1 RMS(Cart)=  0.09348749 RMS(Int)=  0.00414138
 Iteration  2 RMS(Cart)=  0.00760685 RMS(Int)=  0.00028142
 Iteration  3 RMS(Cart)=  0.00001428 RMS(Int)=  0.00028130
 Iteration  4 RMS(Cart)=  0.00000000 RMS(Int)=  0.00028130
 Variable       Old X    -DE/DX   Delta X   Delta X   Delta X     New X
                                 (Linear)    (Quad)   (Total)
    R1        2.02201   0.00667   0.00000   0.01264   0.01264   2.03465
    R2        2.02201   0.00883   0.00000   0.01673   0.01673   2.03873
    R3        2.02201   0.00881   0.00000   0.01670   0.01670   2.03870
    R4        2.91018  -0.02427   0.00000  -0.05779  -0.05779   2.85239
    R5        2.02201   0.00588   0.00000   0.01114   0.01114   2.03315
    R6        2.02201   0.00588   0.00000   0.01115   0.01115   2.03315
    R7        2.91018  -0.04146   0.00000  -0.09871  -0.09871   2.81146
    R8        2.91018  -0.00660   0.00000  -0.01571  -0.01571   2.89446
    R9        2.37803  -0.10594   0.00000  -0.09994  -0.09994   2.27810
   R10        2.91018  -0.09591   0.00000  -0.22835  -0.22835   2.68183
   R11        2.02201   0.00985   0.00000   0.01866   0.01866   2.04067
   R12        2.02201   0.00892   0.00000   0.01691   0.01691   2.03891
   R13        2.02201   0.00892   0.00000   0.01690   0.01690   2.03891
    A1        1.91063   0.00371   0.00000   0.01600   0.01597   1.92660
    A2        1.91063   0.00373   0.00000   0.01608   0.01605   1.92669
    A3        1.91063  -0.00400   0.00000  -0.01308  -0.01310   1.89753
    A4        1.91063  -0.00039   0.00000  -0.00548  -0.00556   1.90507
    A5        1.91063  -0.00152   0.00000  -0.00676  -0.00681   1.90382
    A6        1.91063  -0.00153   0.00000  -0.00675  -0.00680   1.90383
    A7        1.91063  -0.00336   0.00000  -0.00290  -0.00407   1.90656
    A8        1.91063   0.00052   0.00000  -0.01045  -0.00997   1.90066
    A9        1.91063   0.00852   0.00000   0.03488   0.03420   1.94484
   A10        1.91063   0.00052   0.00000  -0.01044  -0.00997   1.90067
   A11        1.91063   0.00852   0.00000   0.03488   0.03421   1.94484
   A12        1.91063  -0.01473   0.00000  -0.04597  -0.04564   1.86499
   A13        2.18331   0.01917   0.00000   0.05094   0.05094   2.23424
   A14        1.91063   0.00117   0.00000   0.00311   0.00311   1.91374
   A15        2.18925  -0.02034   0.00000  -0.05404  -0.05404   2.13520
   A16        1.91063   0.01271   0.00000   0.03375   0.03375   1.94439
   A17        1.91063  -0.00212   0.00000  -0.00848  -0.00846   1.90218
   A18        1.91063   0.00279   0.00000   0.01077   0.01074   1.92138
   A19        1.91063   0.00276   0.00000   0.01066   0.01063   1.92127
   A20        1.91063  -0.00051   0.00000  -0.00240  -0.00237   1.90826
   A21        1.91063  -0.00050   0.00000  -0.00239  -0.00236   1.90827
   A22        1.91063  -0.00242   0.00000  -0.00817  -0.00825   1.90239
    D1       -0.00195   0.00000   0.00000   0.00002   0.00002  -0.00193
    D2        3.13965   0.00001   0.00000   0.00010   0.00010   3.13975
    D3        2.09245   0.00117   0.00000   0.00746   0.00744   2.09988
    D4       -1.04914   0.00117   0.00000   0.00754   0.00752  -1.04162
    D5       -2.09634  -0.00118   0.00000  -0.00753  -0.00751  -2.10385
    D6        1.04526  -0.00117   0.00000  -0.00745  -0.00743   1.03783
    D7        1.04720  -0.00174   0.00000  -0.00817  -0.00843   1.03877
    D8       -1.04720   0.00174   0.00000   0.00817   0.00842  -1.03877
    D9       -3.14159  -0.00000   0.00000  -0.00001  -0.00001   3.14159
   D10       -1.04914  -0.00316   0.00000  -0.01954  -0.02001  -1.06915
   D11        1.04526  -0.00337   0.00000  -0.02107  -0.02157   1.02369
   D12        3.13965  -0.00294   0.00000  -0.01795  -0.01839   3.12126
   D13        1.04526   0.00316   0.00000   0.01963   0.02011   1.06536
   D14        3.13965   0.00295   0.00000   0.01810   0.01855  -3.12499
   D15       -1.04914   0.00338   0.00000   0.02122   0.02172  -1.02741
   D16        3.13965   0.00000   0.00000   0.00005   0.00005   3.13971
   D17       -1.04914  -0.00021   0.00000  -0.00148  -0.00151  -1.05064
   D18        1.04526   0.00022   0.00000   0.00164   0.00167   1.04693
   D19        3.14159  -0.00000   0.00000  -0.00006  -0.00006   3.14153
   D20        0.00000   0.00000   0.00000   0.00002   0.00002   0.00002
         Item               Value     Threshold  Converged?
 Maximum Force            0.105940     0.000450     NO 
 RMS     Force            0.021219     0.000300     NO 
 Maximum Displacement     0.233269     0.001800     NO 
 RMS     Displacement     0.100311     0.001200     NO 
 Predicted change in Energy=-2.850130D-02
 GradGradGradGradGradGradGradGradGradGradGradGradGradGradGradGradGradGrad

                          Input orientation:                          
 ---------------------------------------------------------------------
 Center     Atomic      Atomic             Coordinates (Angstroms)
 Number     Number       Type             X           Y           Z
 ---------------------------------------------------------------------
      1          6           0       -0.600178   -1.679708    0.000017
      2          1           0       -0.234729   -2.692477    0.001896
      3          1           0       -0.257656   -1.158210   -0.880119
      4          1           0       -0.257671   -1.154869    0.878152
      5          6           0       -4.100242   -0.365815   -0.000001
      6          1           0       -4.454471   -0.878286    0.877182
      7          1           0       -4.454422   -0.878264   -0.877218
      8          6           0       -2.109309   -1.709237    0.000053
      9          8           0       -2.832985   -2.673375   -0.000006
     10          8           0       -2.612571   -0.382307    0.000049
     11          6           0       -4.528109    1.104895    0.000009
     12          1           0       -5.606726    1.156999   -0.001951
     13          1           0       -4.148069    1.601372    0.879330
     14          1           0       -4.144827    1.602211   -0.877426
 ---------------------------------------------------------------------
                    Distance matrix (angstroms):
                    1          2          3          4          5
     1  C    0.000000
     2  H    1.076688   0.000000
     3  H    1.078852   1.769873   0.000000
     4  H    1.078836   1.769912   1.758274   0.000000
     5  C    3.738551   4.511713   4.020941   4.019839   0.000000
     6  H    4.033271   4.675857   4.558478   4.205904   1.075897
     7  H    4.033243   4.676539   4.206093   4.557471   1.075898
     8  C    1.509420   2.116793   2.122958   2.122956   2.401791
     9  O    2.443932   2.598327   3.114907   3.115969   2.632636
    10  O    2.394363   3.315271   2.631035   2.629348   1.487763
    11  C    4.814837   5.731766   4.912539   4.910631   1.531685
    12  H    5.754341   6.608845   5.894398   5.893361   2.142070
    13  H    4.911844   5.875480   5.083923   4.767815   2.155304
    14  H    4.909728   5.874216   4.767602   5.078732   2.155224
                    6          7          8          9         10
     6  H    0.000000
     7  H    1.754400   0.000000
     8  C    2.638109   2.638119   0.000000
     9  O    2.573134   2.573127   1.205516   0.000000
    10  O    2.099513   2.099520   1.419161   2.301647   0.000000
    11  C    2.169761   2.169764   3.710786   4.141107   2.425088
    12  H    2.498590   2.497237   4.521863   4.729208   3.366665
    13  H    2.498518   3.054162   3.986202   4.558086   2.658171
    14  H    3.054078   2.499721   3.984845   4.557569   2.656328
                   11         12         13         14
    11  C    0.000000
    12  H    1.079877   0.000000
    13  H    1.078946   1.761194   0.000000
    14  H    1.078944   1.761198   1.756758   0.000000
 Stoichiometry    C4H8O2
 Framework group  C1[X(C4H8O2)]
 Deg. of freedom    36
 Full point group                 C1      NOp   1
 Largest Abelian subgroup         C1      NOp   1
 Largest concise Abelian subgroup C1      NOp   1
                         Standard orientation:                         
 ---------------------------------------------------------------------
 Center     Atomic      Atomic             Coordinates (Angstroms)
 Number     Number       Type             X           Y           Z
 ---------------------------------------------------------------------
      1          6           0        2.190619   -0.855672   -0.000003
      2          1           0        3.130335   -0.330136   -0.001882
      3          1           0        2.107613   -1.474050    0.880133
      4          1           0        2.105412   -1.476564   -0.878138
      5          6           0       -1.314215    0.445443    0.000015
      6          1           0       -1.245967    1.064674   -0.877168
      7          1           0       -1.245944    1.064625    0.877232
      8          6           0        1.070018    0.155566   -0.000039
      9          8           0        1.155175    1.358070    0.000020
     10          8           0       -0.179667   -0.516970   -0.000035
     11          6           0       -2.601167   -0.385105    0.000004
     12          1           0       -3.450066    0.282354    0.001965
     13          1           0       -2.639439   -1.009169   -0.879316
     14          1           0       -2.637539   -1.011927    0.877439
 ---------------------------------------------------------------------
 Rotational constants (GHZ):      8.3741623      2.0400239      1.6916247
 Standard basis: 3-21G (6D, 7F)
 There are    70 symmetry adapted cartesian basis functions of A   symmetry.
 There are    70 symmetry adapted basis functions of A   symmetry.
    70 basis functions,   114 primitive gaussians,    70 cartesian basis functions
    24 alpha electrons       24 beta electrons
       nuclear repulsion energy       241.0905694880 Hartrees.
 NAtoms=   14 NActive=   14 NUniq=   14 SFac= 1.00D+00 NAtFMM=   60 NAOKFM=F Big=F
 Integral buffers will be    131072 words long.
 Raffenetti 1 integral format.
 Two-electron integral symmetry is turned on.
 One-electron integrals computed using PRISM.
 NBasis=    70 RedAO= T EigKep=  1.26D-02  NBF=    70
 NBsUse=    70 1.00D-06 EigRej= -1.00D+00 NBFU=    70
 Initial guess from the checkpoint file:  "/scratch/pbs.8312969.achilles/Gau-61389.chk"
 B after Tr=     0.000000    0.000000    0.000000
         Rot=    0.999990   -0.000004   -0.000001   -0.004364 Ang=  -0.50 deg.
 ExpMin= 1.83D-01 ExpMax= 3.22D+02 ExpMxC= 3.22D+02 IAcc=1 IRadAn=         1 AccDes= 0.00D+00
 Harris functional with IExCor=  205 and IRadAn=       1 diagonalized for initial guess.
 HarFok:  IExCor=  205 AccDes= 0.00D+00 IRadAn=         1 IDoV= 1 UseB2=F ITyADJ=14
 ICtDFT=  3500011 ScaDFX=  1.000000  1.000000  1.000000  1.000000
 FoFCou: FMM=F IPFlag=           0 FMFlag=      100000 FMFlg1=           0
         NFxFlg=           0 DoJE=T BraDBF=F KetDBF=T FulRan=T
         wScrn=  0.000000 ICntrl=     500 IOpCl=  0 I1Cent=   200000004 NGrid=           0
         NMat0=    1 NMatS0=      1 NMatT0=    0 NMatD0=    1 NMtDS0=    0 NMtDT0=    0
 Petite list used in FoFCou.
 Keep R1 ints in memory in canonical form, NReq=3951795.
 Requested convergence on RMS density matrix=1.00D-08 within 128 cycles.
 Requested convergence on MAX density matrix=1.00D-06.
 Requested convergence on             energy=1.00D-06.
 No special actions if energy rises.
 SCF Done:  E(RHF) =  -304.166657095     A.U. after   12 cycles
            NFock= 12  Conv=0.10D-07     -V/T= 2.0030
 Calling FoFJK, ICntrl=      2127 FMM=F ISym2X=0 I1Cent= 0 IOpClX= 0 NMat=1 NMatS=1 NMatT=0.
 ***** Axes restored to original set *****
 -------------------------------------------------------------------
 Center     Atomic                   Forces (Hartrees/Bohr)
 Number     Number              X              Y              Z
 -------------------------------------------------------------------
      1        6          -0.009609587   -0.004853416    0.000025278
      2        1           0.001974211   -0.001127425   -0.000007097
      3        1           0.001180276    0.002219153   -0.000830687
      4        1           0.001176319    0.002221394    0.000814796
      5        6           0.009912178    0.015945774   -0.000001758
      6        1          -0.000213118   -0.001894462    0.000751607
      7        1          -0.000203120   -0.001888613   -0.000758780
      8        6          -0.005072546    0.029199905    0.000000058
      9        8           0.007860453    0.011968919    0.000002217
     10        8          -0.009218319   -0.048198551    0.000003203
     11        6           0.003753835   -0.007887658    0.000002452
     12        1          -0.002877738    0.001953842    0.000003138
     13        1           0.000671247    0.001174968    0.001455509
     14        1           0.000665910    0.001166170   -0.001459936
 -------------------------------------------------------------------
 Cartesian Forces:  Max     0.048198551 RMS     0.009860619

 GradGradGradGradGradGradGradGradGradGradGradGradGradGradGradGradGradGrad
 Berny optimization.
 Using GEDIIS/GDIIS optimizer.
 FormGI is forming the generalized inverse of G from B-inverse, IUseBI=4.
 GSVD:  received Info=                   1 from GESDD.
 Internal  Forces:  Max     0.037936411 RMS     0.007059194
 Search for a local minimum.
 Step number   2 out of a maximum of   65
 All quantities printed in internal units (Hartrees-Bohrs-Radians)
 Mixed Optimization -- RFO/linear search
 Update second derivatives using D2CorX and points    1    2
 DE= -2.98D-02 DEPred=-2.85D-02 R= 1.05D+00
 TightC=F SS=  1.41D+00  RLast= 3.04D-01 DXNew= 5.0454D-01 9.1308D-01
 Trust test= 1.05D+00 RLast= 3.04D-01 DXMaxT set to 5.05D-01
 ITU=  1  0
 Use linear search instead of GDIIS.
     Eigenvalues ---    0.00230   0.00230   0.00235   0.00237   0.00237
     Eigenvalues ---    0.05218   0.05567   0.05624   0.05727   0.07336
     Eigenvalues ---    0.07343   0.10925   0.13387   0.15947   0.16000
     Eigenvalues ---    0.16000   0.16000   0.16000   0.16080   0.19693
     Eigenvalues ---    0.22145   0.25000   0.25276   0.28295   0.28519
     Eigenvalues ---    0.28519   0.32038   0.37226   0.37230   0.37230
     Eigenvalues ---    0.37230   0.37230   0.37230   0.37230   0.37552
     Eigenvalues ---    0.87877
 RFO step:  Lambda=-6.12902988D-03 EMin= 2.30000000D-03
 Quartic linear search produced a step of  0.31500.
 Iteration  1 RMS(Cart)=  0.10143093 RMS(Int)=  0.00348617
 Iteration  2 RMS(Cart)=  0.00791571 RMS(Int)=  0.00009923
 Iteration  3 RMS(Cart)=  0.00000438 RMS(Int)=  0.00009916
 Iteration  4 RMS(Cart)=  0.00000000 RMS(Int)=  0.00009916
 Variable       Old X    -DE/DX   Delta X   Delta X   Delta X     New X
                                 (Linear)    (Quad)   (Total)
    R1        2.03465   0.00173   0.00398   0.00104   0.00502   2.03966
    R2        2.03873   0.00213   0.00527   0.00080   0.00607   2.04480
    R3        2.03870   0.00212   0.00526   0.00078   0.00604   2.04475
    R4        2.85239  -0.00531  -0.01820   0.00150  -0.01670   2.83569
    R5        2.03315   0.00159   0.00351   0.00112   0.00463   2.03778
    R6        2.03315   0.00159   0.00351   0.00112   0.00463   2.03778
    R7        2.81146  -0.01161  -0.03109  -0.00890  -0.03999   2.77147
    R8        2.89446  -0.00407  -0.00495  -0.01141  -0.01636   2.87811
    R9        2.27810  -0.01429  -0.03148   0.00770  -0.02378   2.25431
   R10        2.68183  -0.03794  -0.07193  -0.07044  -0.14237   2.53946
   R11        2.04067   0.00297   0.00588   0.00296   0.00884   2.04951
   R12        2.03891   0.00196   0.00533   0.00017   0.00549   2.04441
   R13        2.03891   0.00196   0.00532   0.00016   0.00549   2.04440
    A1        1.92660  -0.00051   0.00503  -0.00999  -0.00509   1.92151
    A2        1.92669  -0.00050   0.00506  -0.00994  -0.00502   1.92167
    A3        1.89753   0.00250  -0.00413   0.03101   0.02674   1.92428
    A4        1.90507  -0.00165  -0.00175  -0.01671  -0.01852   1.88656
    A5        1.90382   0.00009  -0.00215   0.00304   0.00080   1.90463
    A6        1.90383   0.00009  -0.00214   0.00306   0.00082   1.90466
    A7        1.90656  -0.00134  -0.00128  -0.01640  -0.01809   1.88847
    A8        1.90066   0.00074  -0.00314   0.01608   0.01309   1.91375
    A9        1.94484   0.00183   0.01077  -0.00918   0.00140   1.94624
   A10        1.90067   0.00075  -0.00314   0.01612   0.01312   1.91379
   A11        1.94484   0.00183   0.01078  -0.00920   0.00138   1.94622
   A12        1.86499  -0.00385  -0.01438   0.00449  -0.00976   1.85523
   A13        2.23424   0.00050   0.01605  -0.02127  -0.00522   2.22902
   A14        1.91374   0.00105   0.00098   0.00393   0.00491   1.91865
   A15        2.13520  -0.00155  -0.01702   0.01734   0.00031   2.13552
   A16        1.94439   0.02884   0.01063   0.13192   0.14255   2.08694
   A17        1.90218   0.00263  -0.00266   0.02880   0.02612   1.92830
   A18        1.92138  -0.00011   0.00338  -0.00874  -0.00540   1.91597
   A19        1.92127  -0.00012   0.00335  -0.00877  -0.00547   1.91580
   A20        1.90826  -0.00105  -0.00075  -0.00397  -0.00473   1.90353
   A21        1.90827  -0.00105  -0.00074  -0.00395  -0.00471   1.90356
   A22        1.90239  -0.00032  -0.00260  -0.00342  -0.00610   1.89628
    D1       -0.00193   0.00000   0.00001   0.00027   0.00028  -0.00165
    D2        3.13975   0.00001   0.00003   0.00005   0.00008   3.13983
    D3        2.09988   0.00095   0.00234   0.00856   0.01094   2.11082
    D4       -1.04162   0.00095   0.00237   0.00834   0.01074  -1.03088
    D5       -2.10385  -0.00095  -0.00237  -0.00808  -0.01048  -2.11434
    D6        1.03783  -0.00095  -0.00234  -0.00831  -0.01068   1.02715
    D7        1.03877  -0.00038  -0.00266  -0.00058  -0.00327   1.03550
    D8       -1.03877   0.00038   0.00265   0.00048   0.00317  -1.03561
    D9        3.14159  -0.00000  -0.00000  -0.00005  -0.00005   3.14154
   D10       -1.06915  -0.00043  -0.00630   0.01737   0.01091  -1.05824
   D11        1.02369  -0.00016  -0.00680   0.02505   0.01808   1.04177
   D12        3.12126  -0.00070  -0.00579   0.00968   0.00376   3.12501
   D13        1.06536   0.00044   0.00633  -0.01687  -0.01038   1.05498
   D14       -3.12499   0.00071   0.00584  -0.00919  -0.00321  -3.12820
   D15       -1.02741   0.00017   0.00684  -0.02455  -0.01754  -1.04495
   D16        3.13971   0.00000   0.00002   0.00026   0.00028   3.13999
   D17       -1.05064   0.00028  -0.00047   0.00794   0.00745  -1.04319
   D18        1.04693  -0.00027   0.00053  -0.00742  -0.00688   1.04005
   D19        3.14153  -0.00000  -0.00002  -0.00002  -0.00004   3.14149
   D20        0.00002  -0.00000   0.00001  -0.00023  -0.00023  -0.00020
         Item               Value     Threshold  Converged?
 Maximum Force            0.037936     0.000450     NO 
 RMS     Force            0.007059     0.000300     NO 
 Maximum Displacement     0.272972     0.001800     NO 
 RMS     Displacement     0.102809     0.001200     NO 
 Predicted change in Energy=-6.417946D-03
 GradGradGradGradGradGradGradGradGradGradGradGradGradGradGradGradGradGrad

                          Input orientation:                          
 ---------------------------------------------------------------------
 Center     Atomic      Atomic             Coordinates (Angstroms)
 Number     Number       Type             X           Y           Z
 ---------------------------------------------------------------------
      1          6           0       -0.632835   -1.621732    0.000062
      2          1           0       -0.175766   -2.599519    0.001856
      3          1           0       -0.323511   -1.068371   -0.876847
      4          1           0       -0.323761   -1.065110    0.874958
      5          6           0       -4.151729   -0.402979   -0.000086
      6          1           0       -4.556853   -0.888587    0.873350
      7          1           0       -4.556722   -0.888423   -0.873675
      8          6           0       -2.128152   -1.747322    0.000062
      9          8           0       -2.776338   -2.748791    0.000175
     10          8           0       -2.690363   -0.526757    0.000048
     11          6           0       -4.454213    1.089708    0.000015
     12          1           0       -5.525332    1.259892   -0.001710
     13          1           0       -4.024666    1.550194    0.879701
     14          1           0       -4.021723    1.550727   -0.877942
 ---------------------------------------------------------------------
                    Distance matrix (angstroms):
                    1          2          3          4          5
     1  C    0.000000
     2  H    1.079343   0.000000
     3  H    1.082062   1.771542   0.000000
     4  H    1.082034   1.771615   1.751808   0.000000
     5  C    3.723973   4.542364   3.983303   3.982142   0.000000
     6  H    4.086325   4.783379   4.584397   4.236771   1.078347
     7  H    4.086325   4.784055   4.237035   4.583328   1.078348
     8  C    1.500582   2.130271   2.118177   2.118179   2.429428
     9  O    2.421749   2.604853   3.099893   3.100832   2.719289
    10  O    2.330749   3.258764   2.581526   2.579940   1.466599
    11  C    4.685600   5.649382   4.742246   4.740190   1.523028
    12  H    5.678054   6.596433   5.765901   5.764592   2.156834
    13  H    4.726457   5.727544   4.862190   4.531725   2.145939
    14  H    4.724399   5.726253   4.531716   4.856972   2.145810
                    6          7          8          9         10
     6  H    0.000000
     7  H    1.747026   0.000000
     8  C    2.720045   2.720125   0.000000
     9  O    2.719012   2.719256   1.192931   0.000000
    10  O    2.092215   2.092246   1.343823   2.223697   0.000000
    11  C    2.164926   2.164913   3.668692   4.189194   2.392516
    12  H    2.513891   2.512725   4.536978   4.860712   3.350996
    13  H    2.496180   3.050289   3.904375   4.562145   2.620664
    14  H    3.050187   2.497137   3.903028   4.561571   2.619032
                   11         12         13         14
    11  C    0.000000
    12  H    1.084556   0.000000
    13  H    1.081853   1.764414   0.000000
    14  H    1.081848   1.764429   1.757645   0.000000
 Stoichiometry    C4H8O2
 Framework group  C1[X(C4H8O2)]
 Deg. of freedom    36
 Full point group                 C1      NOp   1
 Largest Abelian subgroup         C1      NOp   1
 Largest concise Abelian subgroup C1      NOp   1
                         Standard orientation:                         
 ---------------------------------------------------------------------
 Center     Atomic      Atomic             Coordinates (Angstroms)
 Number     Number       Type             X           Y           Z
 ---------------------------------------------------------------------
      1          6           0        2.101070   -0.927829   -0.000025
      2          1           0        3.090988   -0.497665   -0.001819
      3          1           0        1.966515   -1.547332    0.876884
      4          1           0        1.964168   -1.549611   -0.874921
      5          6           0       -1.343010    0.488604    0.000124
      6          1           0       -1.325109    1.120759   -0.873313
      7          1           0       -1.325120    1.120550    0.873713
      8          6           0        1.063586    0.156317   -0.000025
      9          8           0        1.240873    1.336001   -0.000137
     10          8           0       -0.165868   -0.386180   -0.000011
     11          6           0       -2.557986   -0.429790    0.000023
     12          1           0       -3.473390    0.151839    0.001748
     13          1           0       -2.540951   -1.059288   -0.879663
     14          1           0       -2.539097   -1.061636    0.877980
 ---------------------------------------------------------------------
 Rotational constants (GHZ):      8.2993743      2.0839322      1.7182543
 Standard basis: 3-21G (6D, 7F)
 There are    70 symmetry adapted cartesian basis functions of A   symmetry.
 There are    70 symmetry adapted basis functions of A   symmetry.
    70 basis functions,   114 primitive gaussians,    70 cartesian basis functions
    24 alpha electrons       24 beta electrons
       nuclear repulsion energy       243.4479210732 Hartrees.
 NAtoms=   14 NActive=   14 NUniq=   14 SFac= 1.00D+00 NAtFMM=   60 NAOKFM=F Big=F
 Integral buffers will be    131072 words long.
 Raffenetti 1 integral format.
 Two-electron integral symmetry is turned on.
 One-electron integrals computed using PRISM.
 NBasis=    70 RedAO= T EigKep=  1.24D-02  NBF=    70
 NBsUse=    70 1.00D-06 EigRej= -1.00D+00 NBFU=    70
 Initial guess from the checkpoint file:  "/scratch/pbs.8312969.achilles/Gau-61389.chk"
 B after Tr=     0.000000    0.000000   -0.000000
         Rot=    0.999976    0.000017   -0.000009    0.006944 Ang=   0.80 deg.
 ExpMin= 1.83D-01 ExpMax= 3.22D+02 ExpMxC= 3.22D+02 IAcc=1 IRadAn=         1 AccDes= 0.00D+00
 Harris functional with IExCor=  205 and IRadAn=       1 diagonalized for initial guess.
 HarFok:  IExCor=  205 AccDes= 0.00D+00 IRadAn=         1 IDoV= 1 UseB2=F ITyADJ=14
 ICtDFT=  3500011 ScaDFX=  1.000000  1.000000  1.000000  1.000000
 FoFCou: FMM=F IPFlag=           0 FMFlag=      100000 FMFlg1=           0
         NFxFlg=           0 DoJE=T BraDBF=F KetDBF=T FulRan=T
         wScrn=  0.000000 ICntrl=     500 IOpCl=  0 I1Cent=   200000004 NGrid=           0
         NMat0=    1 NMatS0=      1 NMatT0=    0 NMatD0=    1 NMtDS0=    0 NMtDT0=    0
 Petite list used in FoFCou.
 Keep R1 ints in memory in canonical form, NReq=3951824.
 Requested convergence on RMS density matrix=1.00D-08 within 128 cycles.
 Requested convergence on MAX density matrix=1.00D-06.
 Requested convergence on             energy=1.00D-06.
 No special actions if energy rises.
 SCF Done:  E(RHF) =  -304.171111508     A.U. after   13 cycles
            NFock= 13  Conv=0.88D-08     -V/T= 2.0022
 Calling FoFJK, ICntrl=      2127 FMM=F ISym2X=0 I1Cent= 0 IOpClX= 0 NMat=1 NMatS=1 NMatT=0.
 ***** Axes restored to original set *****
 -------------------------------------------------------------------
 Center     Atomic                   Forces (Hartrees/Bohr)
 Number     Number              X              Y              Z
 -------------------------------------------------------------------
      1        6           0.001826201   -0.002515756   -0.000004796
      2        1          -0.000920345    0.000295121   -0.000004994
      3        1           0.000317981    0.000648554    0.000151123
      4        1           0.000315998    0.000645871   -0.000152510
      5        6           0.001491754    0.000281579    0.000004822
      6        1           0.001640726   -0.001517143    0.001257436
      7        1           0.001652511   -0.001514906   -0.001265422
      8        6           0.009740207    0.010004822    0.000037402
      9        8          -0.009393915   -0.018719373   -0.000010723
     10        8          -0.009380785    0.012194483   -0.000012856
     11        6           0.002139704   -0.000060147    0.000001977
     12        1           0.000744083   -0.000729349    0.000006158
     13        1          -0.000080648    0.000493325   -0.000113546
     14        1          -0.000093473    0.000492920    0.000105929
 -------------------------------------------------------------------
 Cartesian Forces:  Max     0.018719373 RMS     0.004638652

 GradGradGradGradGradGradGradGradGradGradGradGradGradGradGradGradGradGrad
 Berny optimization.
 Using GEDIIS/GDIIS optimizer.
 FormGI is forming the generalized inverse of G from B-inverse, IUseBI=4.
 GSVD:  received Info=                   1 from GESDD.
 Internal  Forces:  Max     0.020819199 RMS     0.003450280
 Search for a local minimum.
 Step number   3 out of a maximum of   65
 All quantities printed in internal units (Hartrees-Bohrs-Radians)
 Mixed Optimization -- RFO/linear search
 Update second derivatives using D2CorX and points    1    2    3
 DE= -4.45D-03 DEPred=-6.42D-03 R= 6.94D-01
 TightC=F SS=  1.41D+00  RLast= 2.19D-01 DXNew= 8.4853D-01 6.5594D-01
 Trust test= 6.94D-01 RLast= 2.19D-01 DXMaxT set to 6.56D-01
 ITU=  1  1  0
 Use linear search instead of GDIIS.
     Eigenvalues ---    0.00230   0.00230   0.00235   0.00237   0.00237
     Eigenvalues ---    0.05230   0.05569   0.05610   0.05684   0.07114
     Eigenvalues ---    0.07350   0.10795   0.13357   0.15951   0.16000
     Eigenvalues ---    0.16000   0.16000   0.16009   0.16198   0.21484
     Eigenvalues ---    0.23358   0.25052   0.25439   0.28380   0.28519
     Eigenvalues ---    0.30605   0.33776   0.37220   0.37230   0.37230
     Eigenvalues ---    0.37230   0.37230   0.37230   0.37293   0.37526
     Eigenvalues ---    0.99991
 RFO step:  Lambda=-7.81032547D-04 EMin= 2.29999999D-03
 Quartic linear search produced a step of -0.16622.
 Iteration  1 RMS(Cart)=  0.01303544 RMS(Int)=  0.00014956
 Iteration  2 RMS(Cart)=  0.00015853 RMS(Int)=  0.00008459
 Iteration  3 RMS(Cart)=  0.00000003 RMS(Int)=  0.00008459
 Variable       Old X    -DE/DX   Delta X   Delta X   Delta X     New X
                                 (Linear)    (Quad)   (Total)
    R1        2.03966  -0.00066  -0.00083  -0.00027  -0.00110   2.03856
    R2        2.04480   0.00030  -0.00101   0.00213   0.00112   2.04593
    R3        2.04475   0.00030  -0.00100   0.00213   0.00112   2.04587
    R4        2.83569   0.00146   0.00278  -0.00061   0.00217   2.83786
    R5        2.03778   0.00109  -0.00077   0.00348   0.00271   2.04049
    R6        2.03778   0.00109  -0.00077   0.00348   0.00271   2.04049
    R7        2.77147  -0.00768   0.00665  -0.03233  -0.02568   2.74579
    R8        2.87811  -0.00035   0.00272  -0.00431  -0.00159   2.87651
    R9        2.25431   0.02082   0.00395   0.01601   0.01996   2.27427
   R10        2.53946   0.00955   0.02367  -0.00445   0.01922   2.55868
   R11        2.04951  -0.00085  -0.00147   0.00011  -0.00136   2.04815
   R12        2.04441   0.00009  -0.00091   0.00157   0.00065   2.04506
   R13        2.04440   0.00009  -0.00091   0.00157   0.00066   2.04505
    A1        1.92151   0.00040   0.00085   0.00303   0.00390   1.92541
    A2        1.92167   0.00040   0.00083   0.00309   0.00394   1.92561
    A3        1.92428  -0.00104  -0.00445  -0.00018  -0.00460   1.91967
    A4        1.88656  -0.00068   0.00308  -0.00941  -0.00633   1.88023
    A5        1.90463   0.00047  -0.00013   0.00165   0.00153   1.90615
    A6        1.90466   0.00047  -0.00014   0.00165   0.00153   1.90618
    A7        1.88847  -0.00032   0.00301   0.00475   0.00734   1.89581
    A8        1.91375  -0.00090  -0.00218  -0.01268  -0.01478   1.89897
    A9        1.94624   0.00181  -0.00023   0.01643   0.01598   1.96222
   A10        1.91379  -0.00090  -0.00218  -0.01268  -0.01479   1.89901
   A11        1.94622   0.00181  -0.00023   0.01643   0.01598   1.96220
   A12        1.85523  -0.00159   0.00162  -0.01348  -0.01179   1.84345
   A13        2.22902  -0.00316   0.00087  -0.00935  -0.00848   2.22053
   A14        1.91865   0.00117  -0.00082   0.00482   0.00401   1.92266
   A15        2.13552   0.00199  -0.00005   0.00453   0.00447   2.13999
   A16        2.08694  -0.00508  -0.02370   0.00908  -0.01461   2.07233
   A17        1.92830  -0.00116  -0.00434  -0.00236  -0.00669   1.92161
   A18        1.91597   0.00078   0.00090   0.00397   0.00487   1.92084
   A19        1.91580   0.00078   0.00091   0.00396   0.00487   1.92067
   A20        1.90353   0.00008   0.00079  -0.00125  -0.00045   1.90308
   A21        1.90356   0.00008   0.00078  -0.00127  -0.00047   1.90309
   A22        1.89628  -0.00057   0.00101  -0.00314  -0.00214   1.89414
    D1       -0.00165  -0.00000  -0.00005  -0.00102  -0.00107  -0.00272
    D2        3.13983   0.00001  -0.00001   0.00272   0.00270  -3.14066
    D3        2.11082   0.00014  -0.00182   0.00367   0.00185   2.11266
    D4       -1.03088   0.00015  -0.00178   0.00741   0.00561  -1.02527
    D5       -2.11434  -0.00015   0.00174  -0.00578  -0.00402  -2.11836
    D6        1.02715  -0.00013   0.00178  -0.00204  -0.00026   1.02689
    D7        1.03550  -0.00074   0.00054  -0.00496  -0.00442   1.03107
    D8       -1.03561   0.00074  -0.00053   0.00452   0.00400  -1.03160
    D9        3.14154  -0.00000   0.00001  -0.00022  -0.00021   3.14133
   D10       -1.05824  -0.00106  -0.00181  -0.01282  -0.01476  -1.07300
   D11        1.04177  -0.00119  -0.00301  -0.01331  -0.01645   1.02532
   D12        3.12501  -0.00092  -0.00062  -0.01230  -0.01304   3.11197
   D13        1.05498   0.00107   0.00173   0.01620   0.01805   1.07304
   D14       -3.12820   0.00093   0.00053   0.01570   0.01636  -3.11184
   D15       -1.04495   0.00120   0.00292   0.01672   0.01977  -1.02518
   D16        3.13999   0.00000  -0.00005   0.00169   0.00164  -3.14156
   D17       -1.04319  -0.00013  -0.00124   0.00120  -0.00005  -1.04324
   D18        1.04005   0.00014   0.00114   0.00221   0.00336   1.04341
   D19        3.14149  -0.00001   0.00001  -0.00178  -0.00178   3.13971
   D20       -0.00020   0.00001   0.00004   0.00172   0.00177   0.00157
         Item               Value     Threshold  Converged?
 Maximum Force            0.020819     0.000450     NO 
 RMS     Force            0.003450     0.000300     NO 
 Maximum Displacement     0.044914     0.001800     NO 
 RMS     Displacement     0.013048     0.001200     NO 
 Predicted change in Energy=-5.982195D-04
 GradGradGradGradGradGradGradGradGradGradGradGradGradGradGradGradGradGrad

                          Input orientation:                          
 ---------------------------------------------------------------------
 Center     Atomic      Atomic             Coordinates (Angstroms)
 Number     Number       Type             X           Y           Z
 ---------------------------------------------------------------------
      1          6           0       -0.638432   -1.621655    0.000238
      2          1           0       -0.192164   -2.603777   -0.000112
      3          1           0       -0.325164   -1.066072   -0.874598
      4          1           0       -0.323369   -1.065674    0.874138
      5          6           0       -4.148685   -0.402492   -0.000100
      6          1           0       -4.534290   -0.901138    0.876589
      7          1           0       -4.532955   -0.901114   -0.877391
      8          6           0       -2.135638   -1.738109    0.001783
      9          8           0       -2.787224   -2.749953   -0.000045
     10          8           0       -2.699444   -0.507085    0.001035
     11          6           0       -4.451997    1.089168   -0.000327
     12          1           0       -5.523626    1.251364   -0.001128
     13          1           0       -4.025136    1.554824    0.878370
     14          1           0       -4.023842    1.554641   -0.878487
 ---------------------------------------------------------------------
                    Distance matrix (angstroms):
                    1          2          3          4          5
     1  C    0.000000
     2  H    1.078759   0.000000
     3  H    1.082657   1.773964   0.000000
     4  H    1.082627   1.774060   1.748737   0.000000
     5  C    3.715943   4.527661   3.977990   3.979591   0.000000
     6  H    4.057689   4.745697   4.561864   4.214135   1.079779
     7  H    4.056688   4.744591   4.211024   4.562406   1.079781
     8  C    1.501728   2.127552   2.120730   2.120728   2.415830
     9  O    2.427007   2.599173   3.108382   3.109915   2.713697
    10  O    2.343082   3.268420   2.591603   2.592308   1.453011
    11  C    4.678872   5.637732   4.737106   4.738524   1.522186
    12  H    5.667394   6.579255   5.758252   5.759985   2.150745
    13  H    4.725558   5.723406   4.861254   4.535428   2.148968
    14  H    4.724617   5.722389   4.533031   4.861198   2.148841
                    6          7          8          9         10
     6  H    0.000000
     7  H    1.753981   0.000000
     8  C    2.686882   2.687124   0.000000
     9  O    2.690511   2.689892   1.203494   0.000000
    10  O    2.070877   2.070906   1.353993   2.244586   0.000000
    11  C    2.176482   2.176470   3.654999   4.184534   2.370542
    12  H    2.526349   2.526347   4.518342   4.847519   3.326883
    13  H    2.508185   3.061407   3.896411   4.564554   2.603584
    14  H    3.061323   2.507973   3.896458   4.564035   2.603517
                   11         12         13         14
    11  C    0.000000
    12  H    1.083834   0.000000
    13  H    1.082199   1.763825   0.000000
    14  H    1.082195   1.763827   1.756858   0.000000
 Stoichiometry    C4H8O2
 Framework group  C1[X(C4H8O2)]
 Deg. of freedom    36
 Full point group                 C1      NOp   1
 Largest Abelian subgroup         C1      NOp   1
 Largest concise Abelian subgroup C1      NOp   1
                         Standard orientation:                         
 ---------------------------------------------------------------------
 Center     Atomic      Atomic             Coordinates (Angstroms)
 Number     Number       Type             X           Y           Z
 ---------------------------------------------------------------------
      1          6           0        2.099604   -0.929428    0.000072
      2          1           0        3.085454   -0.491454    0.000422
      3          1           0        1.964896   -1.552856    0.874908
      4          1           0        1.965973   -1.554346   -0.873828
      5          6           0       -1.334551    0.490011    0.000410
      6          1           0       -1.291736    1.118903   -0.876279
      7          1           0       -1.290753    1.117999    0.877701
      8          6           0        1.057496    0.151865   -0.001474
      9          8           0        1.242232    1.341095    0.000355
     10          8           0       -0.181518   -0.394158   -0.000725
     11          6           0       -2.551874   -0.423868    0.000636
     12          1           0       -3.460822    0.166478    0.001438
     13          1           0       -2.541935   -1.055490   -0.878061
     14          1           0       -2.540846   -1.056213    0.878796
 ---------------------------------------------------------------------
 Rotational constants (GHZ):      8.2587262      2.0926298      1.7224663
 Standard basis: 3-21G (6D, 7F)
 There are    70 symmetry adapted cartesian basis functions of A   symmetry.
 There are    70 symmetry adapted basis functions of A   symmetry.
    70 basis functions,   114 primitive gaussians,    70 cartesian basis functions
    24 alpha electrons       24 beta electrons
       nuclear repulsion energy       243.3695229888 Hartrees.
 NAtoms=   14 NActive=   14 NUniq=   14 SFac= 1.00D+00 NAtFMM=   60 NAOKFM=F Big=F
 Integral buffers will be    131072 words long.
 Raffenetti 1 integral format.
 Two-electron integral symmetry is turned on.
 One-electron integrals computed using PRISM.
 NBasis=    70 RedAO= T EigKep=  1.25D-02  NBF=    70
 NBsUse=    70 1.00D-06 EigRej= -1.00D+00 NBFU=    70
 Initial guess from the checkpoint file:  "/scratch/pbs.8312969.achilles/Gau-61389.chk"
 B after Tr=     0.000000   -0.000000    0.000000
         Rot=    1.000000   -0.000046   -0.000043    0.000907 Ang=  -0.10 deg.
 ExpMin= 1.83D-01 ExpMax= 3.22D+02 ExpMxC= 3.22D+02 IAcc=1 IRadAn=         1 AccDes= 0.00D+00
 Harris functional with IExCor=  205 and IRadAn=       1 diagonalized for initial guess.
 HarFok:  IExCor=  205 AccDes= 0.00D+00 IRadAn=         1 IDoV= 1 UseB2=F ITyADJ=14
 ICtDFT=  3500011 ScaDFX=  1.000000  1.000000  1.000000  1.000000
 FoFCou: FMM=F IPFlag=           0 FMFlag=      100000 FMFlg1=           0
         NFxFlg=           0 DoJE=T BraDBF=F KetDBF=T FulRan=T
         wScrn=  0.000000 ICntrl=     500 IOpCl=  0 I1Cent=   200000004 NGrid=           0
         NMat0=    1 NMatS0=      1 NMatT0=    0 NMatD0=    1 NMtDS0=    0 NMtDT0=    0
 Petite list used in FoFCou.
 Keep R1 ints in memory in canonical form, NReq=3951824.
 Requested convergence on RMS density matrix=1.00D-08 within 128 cycles.
 Requested convergence on MAX density matrix=1.00D-06.
 Requested convergence on             energy=1.00D-06.
 No special actions if energy rises.
 SCF Done:  E(RHF) =  -304.171546725     A.U. after   11 cycles
            NFock= 11  Conv=0.28D-08     -V/T= 2.0023
 Calling FoFJK, ICntrl=      2127 FMM=F ISym2X=0 I1Cent= 0 IOpClX= 0 NMat=1 NMatS=1 NMatT=0.
 ***** Axes restored to original set *****
 -------------------------------------------------------------------
 Center     Atomic                   Forces (Hartrees/Bohr)
 Number     Number              X              Y              Z
 -------------------------------------------------------------------
      1        6           0.000319897   -0.000771829    0.000182904
      2        1          -0.000400432    0.000290162    0.000016775
      3        1          -0.000028910   -0.000027160    0.000042766
      4        1           0.000053597   -0.000021918   -0.000039502
      5        6          -0.000698514    0.000174954    0.000023924
      6        1          -0.001291974    0.000455480   -0.000209428
      7        1          -0.001275592    0.000453016    0.000208509
      8        6           0.000732177    0.001188658   -0.000585419
      9        8          -0.000149264    0.000793553    0.000210900
     10        8           0.004544720   -0.001831263    0.000160370
     11        6          -0.001878943   -0.000353815   -0.000010255
     12        1           0.000124118    0.000552990   -0.000001798
     13        1          -0.000023858   -0.000460098   -0.000098830
     14        1          -0.000027022   -0.000442729    0.000099085
 -------------------------------------------------------------------
 Cartesian Forces:  Max     0.004544720 RMS     0.000935128

 GradGradGradGradGradGradGradGradGradGradGradGradGradGradGradGradGradGrad
 Berny optimization.
 Using GEDIIS/GDIIS optimizer.
 FormGI is forming the generalized inverse of G from B-inverse, IUseBI=4.
 Internal  Forces:  Max     0.005085956 RMS     0.000884067
 Search for a local minimum.
 Step number   4 out of a maximum of   65
 All quantities printed in internal units (Hartrees-Bohrs-Radians)
 Mixed Optimization -- En-DIIS/RFO-DIIS
 Update second derivatives using D2CorX and points    1    2    3    4
 DE= -4.35D-04 DEPred=-5.98D-04 R= 7.28D-01
 TightC=F SS=  1.41D+00  RLast= 6.98D-02 DXNew= 1.1031D+00 2.0936D-01
 Trust test= 7.28D-01 RLast= 6.98D-02 DXMaxT set to 6.56D-01
 ITU=  1  1  1  0
 Use linear search instead of GDIIS.
     Eigenvalues ---    0.00230   0.00230   0.00236   0.00237   0.00237
     Eigenvalues ---    0.05301   0.05594   0.05607   0.06014   0.07127
     Eigenvalues ---    0.07339   0.11345   0.13305   0.15832   0.16000
     Eigenvalues ---    0.16000   0.16007   0.16031   0.16340   0.21994
     Eigenvalues ---    0.23232   0.25048   0.25384   0.28370   0.28515
     Eigenvalues ---    0.32989   0.36839   0.37161   0.37230   0.37230
     Eigenvalues ---    0.37230   0.37230   0.37230   0.37529   0.39792
     Eigenvalues ---    0.96336
 RFO step:  Lambda=-1.00050711D-04 EMin= 2.29999672D-03
 Quartic linear search produced a step of -0.20228.
 Iteration  1 RMS(Cart)=  0.01748617 RMS(Int)=  0.00026455
 Iteration  2 RMS(Cart)=  0.00037657 RMS(Int)=  0.00013355
 Iteration  3 RMS(Cart)=  0.00000005 RMS(Int)=  0.00013355
 Variable       Old X    -DE/DX   Delta X   Delta X   Delta X     New X
                                 (Linear)    (Quad)   (Total)
    R1        2.03856  -0.00043   0.00022  -0.00115  -0.00093   2.03763
    R2        2.04593  -0.00006  -0.00023   0.00024   0.00001   2.04594
    R3        2.04587  -0.00003  -0.00023   0.00030   0.00007   2.04594
    R4        2.83786  -0.00010  -0.00044   0.00019  -0.00024   2.83761
    R5        2.04049   0.00008  -0.00055   0.00095   0.00040   2.04089
    R6        2.04049   0.00008  -0.00055   0.00094   0.00039   2.04088
    R7        2.74579   0.00509   0.00519   0.00576   0.01095   2.75674
    R8        2.87651  -0.00033   0.00032  -0.00120  -0.00088   2.87564
    R9        2.27427  -0.00059  -0.00404   0.00483   0.00079   2.27507
   R10        2.55868  -0.00110  -0.00389   0.00295  -0.00093   2.55774
   R11        2.04815  -0.00004   0.00028  -0.00046  -0.00018   2.04797
   R12        2.04506  -0.00029  -0.00013  -0.00034  -0.00048   2.04458
   R13        2.04505  -0.00028  -0.00013  -0.00033  -0.00046   2.04459
    A1        1.92541   0.00013  -0.00079   0.00167   0.00088   1.92629
    A2        1.92561   0.00008  -0.00080   0.00154   0.00075   1.92636
    A3        1.91967  -0.00039   0.00093  -0.00385  -0.00292   1.91675
    A4        1.88023  -0.00001   0.00128  -0.00117   0.00011   1.88033
    A5        1.90615   0.00003  -0.00031   0.00061   0.00030   1.90645
    A6        1.90618   0.00017  -0.00031   0.00127   0.00097   1.90715
    A7        1.89581   0.00015  -0.00148  -0.00224  -0.00369   1.89211
    A8        1.89897   0.00042   0.00299   0.00232   0.00531   1.90427
    A9        1.96222  -0.00103  -0.00323  -0.00215  -0.00537   1.95685
   A10        1.89901   0.00041   0.00299   0.00216   0.00514   1.90415
   A11        1.96220  -0.00103  -0.00323  -0.00216  -0.00537   1.95683
   A12        1.84345   0.00119   0.00238   0.00254   0.00491   1.84836
   A13        2.22053  -0.00026   0.00172  -0.00269  -0.00155   2.21898
   A14        1.92266   0.00178  -0.00081   0.00645   0.00507   1.92773
   A15        2.13999  -0.00152  -0.00090  -0.00356  -0.00503   2.13496
   A16        2.07233  -0.00053   0.00296  -0.00746  -0.00451   2.06782
   A17        1.92161   0.00103   0.00135   0.00296   0.00432   1.92593
   A18        1.92084  -0.00061  -0.00098  -0.00157  -0.00255   1.91829
   A19        1.92067  -0.00058  -0.00099  -0.00142  -0.00240   1.91827
   A20        1.90308  -0.00012   0.00009  -0.00009   0.00001   1.90309
   A21        1.90309  -0.00013   0.00010  -0.00010  -0.00001   1.90308
   A22        1.89414   0.00042   0.00043   0.00019   0.00062   1.89476
    D1       -0.00272   0.00011   0.00022   0.02958   0.02980   0.02708
    D2       -3.14066  -0.00010  -0.00055  -0.03183  -0.03238   3.11015
    D3        2.11266   0.00004  -0.00037   0.02961   0.02924   2.14191
    D4       -1.02527  -0.00016  -0.00113  -0.03180  -0.03294  -1.05821
    D5       -2.11836   0.00014   0.00081   0.02928   0.03010  -2.08826
    D6        1.02689  -0.00006   0.00005  -0.03213  -0.03208   0.99481
    D7        1.03107   0.00033   0.00090   0.00028   0.00117   1.03224
    D8       -1.03160  -0.00033  -0.00081   0.00042  -0.00039  -1.03199
    D9        3.14133   0.00000   0.00004   0.00039   0.00043  -3.14142
   D10       -1.07300   0.00068   0.00299   0.00323   0.00623  -1.06677
   D11        1.02532   0.00080   0.00333   0.00401   0.00735   1.03267
   D12        3.11197   0.00057   0.00264   0.00238   0.00503   3.11700
   D13        1.07304  -0.00068  -0.00365  -0.00300  -0.00666   1.06637
   D14       -3.11184  -0.00056  -0.00331  -0.00222  -0.00554  -3.11737
   D15       -1.02518  -0.00079  -0.00400  -0.00385  -0.00786  -1.03304
   D16       -3.14156  -0.00000  -0.00033   0.00002  -0.00032   3.14131
   D17       -1.04324   0.00011   0.00001   0.00080   0.00081  -1.04243
   D18        1.04341  -0.00012  -0.00068  -0.00083  -0.00151   1.04190
   D19        3.13971   0.00010   0.00036   0.03061   0.03091  -3.11257
   D20        0.00157  -0.00009  -0.00036  -0.02744  -0.02775  -0.02618
         Item               Value     Threshold  Converged?
 Maximum Force            0.005086     0.000450     NO 
 RMS     Force            0.000884     0.000300     NO 
 Maximum Displacement     0.054321     0.001800     NO 
 RMS     Displacement     0.017347     0.001200     NO 
 Predicted change in Energy=-7.954142D-05
 GradGradGradGradGradGradGradGradGradGradGradGradGradGradGradGradGradGrad

                          Input orientation:                          
 ---------------------------------------------------------------------
 Center     Atomic      Atomic             Coordinates (Angstroms)
 Number     Number       Type             X           Y           Z
 ---------------------------------------------------------------------
      1          6           0       -0.632176   -1.627073    0.001464
      2          1           0       -0.196556   -2.613127    0.025801
      3          1           0       -0.296418   -1.088323   -0.875564
      4          1           0       -0.329902   -1.059892    0.872727
      5          6           0       -4.146132   -0.399570   -0.003411
      6          1           0       -4.527190   -0.900039    0.874488
      7          1           0       -4.542994   -0.894520   -0.877423
      8          6           0       -2.129809   -1.732581   -0.026114
      9          8           0       -2.788146   -2.740125    0.003187
     10          8           0       -2.690914   -0.500900   -0.016964
     11          6           0       -4.460385    1.089330    0.004096
     12          1           0       -5.532374    1.248161    0.014059
     13          1           0       -4.026730    1.553013    0.880194
     14          1           0       -4.042240    1.558575   -0.876574
 ---------------------------------------------------------------------
                    Distance matrix (angstroms):
                    1          2          3          4          5
     1  C    0.000000
     2  H    1.078267   0.000000
     3  H    1.082664   1.774108   0.000000
     4  H    1.082665   1.774149   1.748843   0.000000
     5  C    3.722188   4.527675   4.006910   3.970800   0.000000
     6  H    4.057325   4.733850   4.582309   4.200331   1.079991
     7  H    4.074749   4.760352   4.250996   4.565141   1.079987
     8  C    1.501599   2.124977   2.120839   2.121342   2.417228
     9  O    2.426334   2.594799   3.115984   3.101974   2.705987
    10  O    2.346701   3.268815   2.610722   2.584260   1.458805
    11  C    4.694043   5.647026   4.780647   4.736514   1.521721
    12  H    5.681467   6.586398   5.802225   5.755877   2.153366
    13  H    4.733721   5.723369   4.896383   4.527015   2.146531
    14  H    4.748456   5.745143   4.586638   4.868046   2.146518
                    6          7          8          9         10
     6  H    0.000000
     7  H    1.751991   0.000000
     8  C    2.692887   2.692682   0.000000
     9  O    2.677565   2.694665   1.203915   0.000000
    10  O    2.079882   2.079790   1.353499   2.241425   0.000000
    11  C    2.172472   2.172455   3.660010   4.178649   2.379139
    12  H    2.522993   2.522834   4.523702   4.841211   3.336775
    13  H    2.503589   3.057150   3.900619   4.553489   2.609188
    14  H    3.057151   2.503683   3.900305   4.563501   2.608917
                   11         12         13         14
    11  C    0.000000
    12  H    1.083737   0.000000
    13  H    1.081946   1.763544   0.000000
    14  H    1.081949   1.763543   1.756845   0.000000
 Stoichiometry    C4H8O2
 Framework group  C1[X(C4H8O2)]
 Deg. of freedom    36
 Full point group                 C1      NOp   1
 Largest Abelian subgroup         C1      NOp   1
 Largest concise Abelian subgroup C1      NOp   1
                         Standard orientation:                         
 ---------------------------------------------------------------------
 Center     Atomic      Atomic             Coordinates (Angstroms)
 Number     Number       Type             X           Y           Z
 ---------------------------------------------------------------------
      1          6           0        2.111175   -0.919862   -0.008256
      2          1           0        3.090267   -0.468845   -0.033218
      3          1           0        2.007147   -1.546400    0.868550
      4          1           0        1.961714   -1.544689   -0.879701
      5          6           0       -1.335629    0.485181    0.000303
      6          1           0       -1.290897    1.112996   -0.877323
      7          1           0       -1.304880    1.118446    0.874604
      8          6           0        1.058199    0.150277    0.020765
      9          8           0        1.231335    1.341328   -0.008094
     10          8           0       -0.177543   -0.401838    0.012412
     11          6           0       -2.556511   -0.423132   -0.006597
     12          1           0       -3.465326    0.167175   -0.015480
     13          1           0       -2.538987   -1.057303   -0.883026
     14          1           0       -2.552773   -1.052082    0.873757
 ---------------------------------------------------------------------
 Rotational constants (GHZ):      8.2927670      2.0860014      1.7195200
 Standard basis: 3-21G (6D, 7F)
 There are    70 symmetry adapted cartesian basis functions of A   symmetry.
 There are    70 symmetry adapted basis functions of A   symmetry.
    70 basis functions,   114 primitive gaussians,    70 cartesian basis functions
    24 alpha electrons       24 beta electrons
       nuclear repulsion energy       243.2307385904 Hartrees.
 NAtoms=   14 NActive=   14 NUniq=   14 SFac= 1.00D+00 NAtFMM=   60 NAOKFM=F Big=F
 Integral buffers will be    131072 words long.
 Raffenetti 1 integral format.
 Two-electron integral symmetry is turned on.
 One-electron integrals computed using PRISM.
 NBasis=    70 RedAO= T EigKep=  1.25D-02  NBF=    70
[...]
 ! A4    A(3,1,4)              107.7429         -DE/DX =    0.0                 !
 ! A5    A(3,1,8)              109.3021         -DE/DX =    0.0                 !
 ! A6    A(4,1,8)              109.3033         -DE/DX =    0.0                 !
 ! A7    A(6,5,7)              108.41           -DE/DX =    0.0                 !
 ! A8    A(6,5,10)             109.0773         -DE/DX =    0.0                 !
 ! A9    A(6,5,11)             112.1393         -DE/DX =    0.0                 !
 ! A10   A(7,5,10)             109.0773         -DE/DX =    0.0                 !
 ! A11   A(7,5,11)             112.1393         -DE/DX =    0.0                 !
 ! A12   A(10,5,11)            105.9108         -DE/DX =    0.0                 !
 ! A13   A(1,8,9)              126.9976         -DE/DX =    0.0                 !
 ! A14   A(1,8,10)             110.5772         -DE/DX =    0.0                 !
 ! A15   A(9,8,10)             122.4252         -DE/DX =    0.0                 !
 ! A16   A(5,10,8)             118.4677         -DE/DX =    0.0                 !
 ! A17   A(5,11,12)            110.3143         -DE/DX =    0.0                 !
 ! A18   A(5,11,13)            109.9335         -DE/DX =    0.0                 !
 ! A19   A(5,11,14)            109.9339         -DE/DX =    0.0                 !
 ! A20   A(12,11,13)           109.0316         -DE/DX =    0.0                 !
 ! A21   A(12,11,14)           109.0316         -DE/DX =    0.0                 !
 ! A22   A(13,11,14)           108.5609         -DE/DX =    0.0                 !
 ! D1    D(2,1,8,9)             -0.0201         -DE/DX =    0.0                 !
 ! D2    D(2,1,8,10)          -180.0126         -DE/DX =    0.0                 !
 ! D3    D(3,1,8,9)            121.129          -DE/DX =    0.0                 !
 ! D4    D(3,1,8,10)           -58.8636         -DE/DX =    0.0                 !
 ! D5    D(4,1,8,9)           -121.1736         -DE/DX =    0.0                 !
 ! D6    D(4,1,8,10)            58.8339         -DE/DX =    0.0                 !
 ! D7    D(6,5,10,8)            59.1201         -DE/DX =    0.0                 !
 ! D8    D(7,5,10,8)           -59.1215         -DE/DX =    0.0                 !
 ! D9    D(11,5,10,8)          179.9993         -DE/DX =    0.0                 !
 ! D10   D(6,5,11,12)          -61.126          -DE/DX =    0.0                 !
 ! D11   D(6,5,11,13)           59.1476         -DE/DX =    0.0                 !
 ! D12   D(6,5,11,14)          178.6            -DE/DX =    0.0                 !
 ! D13   D(7,5,11,12)           61.1247         -DE/DX =    0.0                 !
 ! D14   D(7,5,11,13)         -178.6017         -DE/DX =    0.0                 !
 ! D15   D(7,5,11,14)          -59.1493         -DE/DX =    0.0                 !
 ! D16   D(10,5,11,12)         179.9993         -DE/DX =    0.0                 !
 ! D17   D(10,5,11,13)         -59.7271         -DE/DX =    0.0                 !
 ! D18   D(10,5,11,14)          59.7254         -DE/DX =    0.0                 !
 ! D19   D(1,8,10,5)           179.9857         -DE/DX =    0.0                 !
 ! D20   D(9,8,10,5)            -0.0073         -DE/DX =    0.0                 !
 --------------------------------------------------------------------------------
 GradGradGradGradGradGradGradGradGradGradGradGradGradGradGradGradGradGrad

 1\1\ WCSS.PL-BEM-WN1531\Freq\RHF\3-21G\C4H8O2\ROOT\28-Feb-2019\0\\#N G
 eom=AllCheck Guess=TCheck SCRF=Check GenChk RHF/3-21G Freq\\AcOEt\\0,1
 \C,-0.6317067284,-1.6276683704,0.0002094143\H,-0.1985726114,-2.6149583
 842,0.0005988314\H,-0.3109489888,-1.0762402858,-0.8744827976\H,-0.3108
 388321,-1.0754474727,0.8743492364\C,-4.1464548326,-0.399090171,-0.0001
 103716\H,-4.5348451261,-0.8971031063,0.8756644854\H,-4.5345660117,-0.8
 972467814,-0.8759273946\C,-2.1296055114,-1.7305313766,0.0003343209\O,-
 2.7863346514,-2.7391389087,0.0004556356\O,-2.6905702953,-0.4999275958,
 0.0001292371\C,-4.4615022277,1.0896480786,-0.0002834493\H,-5.533553075
 3,1.2472981905,-0.0004796775\H,-4.0363841782,1.5567336092,0.8781329508
 \H,-4.0360823697,1.5566009346,-0.8786244513\\Version=ES64L-G09RevE.01\
 State=1-A\HF=-304.1716176\RMSD=5.107e-10\RMSF=3.489e-05\ZeroPoint=0.12
 67865\Thermal=0.1339453\Dipole=0.1598002,0.7603088,-0.0002748\DipoleDe
 riv=-0.3043255,-0.0212543,0.0000475,0.0059342,-0.0281163,0.0000143,0.0
 00103,0.0000267,0.0017732,0.0227795,0.0399834,-0.00002,0.0766437,-0.04
 57032,0.0000568,-0.0000313,0.0000487,0.0956438,0.0899692,-0.0075559,0.
 011795,-0.0175613,0.0637515,0.0801862,0.0417365,0.0728375,0.0010404,0.
 0899906,-0.0075735,-0.0118021,-0.017612,0.0636164,-0.0802364,-0.041757
 5,-0.0728937,0.0011901,0.9004013,-0.3487944,0.0001088,-0.1979809,0.443
 9561,-0.000025,0.0001098,-0.0000379,0.418236,-0.0529357,0.0463431,0.02
 09108,-0.0177095,-0.0148468,0.0699598,0.0454399,0.0674801,-0.0693817,-
 0.0529214,0.0463638,-0.02091,-0.0176907,-0.0148821,-0.0699854,-0.04543
 41,-0.0674844,-0.0693947,1.5484539,-0.1704896,-0.0000272,-0.6178733,1.
 8257198,-0.0003043,0.0000386,-0.0002304,0.4245583,-0.863725,-0.2198763
 ,0.0000555,0.1022182,-1.0709384,0.0001502,-0.0000192,0.0000908,-0.4064
 145,-1.410242,0.6735254,-0.0001634,0.6798517,-1.2629339,0.0001828,-0.0
 001804,0.0001704,-0.4296567,0.0559085,0.0167304,-0.0000006,0.0325027,-
 0.0468383,0.0000143,-0.0000084,0.0000086,0.0654941,-0.145163,0.0572306
 ,-0.0000426,0.0249384,0.038643,0.0000062,-0.0000408,0.0000137,0.081378
 6,0.0609277,-0.0523076,-0.0696844,-0.0178266,0.0242752,-0.0537618,-0.0
 628055,-0.0823774,-0.057245,0.0608818,-0.0523252,0.0697327,-0.0178345,
 0.024297,0.0537422,0.0628495,0.0823475,-0.0572219\Polar=46.5082983,-3.
 2585074,45.8523773,0.0007743,-0.0023524,33.2666834\PolarDeriv=4.281590
 8,-1.5248666,-1.9021787,0.0000662,0.0001405,-0.9789314,1.0474287,-4.47
 26243,2.8406923,0.0002301,-0.0039711,-3.3531982,-0.000489,0.0005565,-0
 .004663,-3.7968119,-3.8755634,0.0054345,2.6041144,-2.8251134,1.4570967
 ,0.0012051,-0.000356,0.4479291,-2.2128088,3.1394241,-6.4764629,-0.0005
 041,0.0020007,0.0947755,0.0009408,-0.000618,0.0014579,1.7810031,-1.544
 7739,0.0010763,2.1568634,1.355827,0.7275159,-2.3632555,-0.1260275,0.74
 21812,0.9610937,1.9543678,2.0846355,-0.4231524,-2.1420397,1.3440938,-1
 .526988,-0.4541582,-0.7859259,2.400915,2.2981716,-4.9865535,2.1573367,
 1.3579744,0.727826,2.362095,0.1263352,0.7420941,0.9624282,1.9550283,2.
 0890325,0.4235578,2.1430588,1.3445432,1.5259163,0.4545111,0.7881462,2.
 3999874,2.2998522,4.9804299,-7.4834699,5.1858679,-1.0697617,-0.0025234
 ,0.0006337,3.8014527,-0.2032305,1.8960543,-3.0888382,-0.0003272,0.0010
 687,2.8033203,-0.002114,0.0003282,0.0005982,2.9308413,3.2195182,0.0007
 834,-2.271032,-1.5109155,-0.2024226,2.4377271,0.2153556,-1.2121835,-0.
 5944369,-1.2851851,-1.6908415,0.1880839,2.0353043,-1.3347111,1.2652603
 ,0.1708255,1.1999368,-2.0769995,-2.0664114,4.7710675,-2.2691515,-1.511
 2276,-0.2021073,-2.4371271,-0.2153164,-1.2120504,-0.5945041,-1.2846599
 ,-1.6917837,-0.1880599,-2.0360732,-1.3350256,-1.2646133,-0.1707939,-1.
 2004445,-2.0766158,-2.0668452,-4.7718288,-1.2964427,1.9935905,1.752352
 5,-0.0001208,-0.0005617,-0.8955412,-4.1085059,3.1259593,1.3903537,-0.0
 007687,0.0011336,0.2928236,0.0014919,-0.0009296,0.0015531,0.7430417,2.
 2761067,-0.0004965,-3.8502923,-3.1402347,-1.5705501,0.0005187,0.000433
 5,0.3134844,-0.4863912,-2.1201955,-9.4437081,0.0002635,0.0009231,0.033
 5944,-0.0001568,0.0004585,0.0003192,-1.1636245,-3.1763324,0.0009928,7.
 3538406,-2.7168759,1.280695,0.0014237,-0.0007136,-1.012292,4.302096,-0
 .575967,3.8227293,0.000537,-0.000523,-0.0921837,0.0003929,-0.0002698,-
 0.0004728,0.7729243,-0.248196,0.0002285,6.1920973,-2.4747376,-1.900951
 2,0.0021838,0.0001695,-2.9989237,-0.760491,-1.9767941,3.6253657,0.0002
 542,-0.0011052,-2.5763484,0.0020655,0.000187,-0.0012352,-2.7012193,-4.
 0788563,-0.0006666,-9.250044,2.4351767,-1.0198222,-0.0013706,0.0002505
 ,0.0584076,1.0068045,-2.8127733,1.0029095,0.0001257,-0.0004084,0.42788
 24,-0.0009194,0.000232,-0.0000392,-2.1791412,1.3572721,-0.0009453,0.83
 65096,1.6878547,0.9609372,2.0183611,0.3278764,1.1019717,0.3402876,1.22
 82321,2.7684823,0.0222583,2.6827279,1.1752318,0.5435716,0.1001979,1.60
 38476,1.4824147,2.8031779,5.0556525,0.8380797,1.6876801,0.9613706,-2.0
 191834,-0.3282198,1.1024015,0.3402296,1.2291331,2.7674337,-0.0224983,-
 2.6820965,1.175202,-0.544359,-0.1005274,-1.6030786,1.4832846,2.8028799
 ,-5.0551746\HyperPolar=-58.792587,12.3614608,36.2644123,-15.1367859,-0
 .0045257,-0.0036914,0.0254281,9.8434885,31.2021478,-0.0326849\PG=C01 [
 X(C4H8O2)]\NImag=0\\0.52328350,-0.02687118,0.68498353,0.00003060,0.000
 00064,0.60800324,-0.10685581,0.10078365,-0.00004272,0.11638232,0.11259
 999,-0.31143174,0.00009934,-0.12033404,0.33623059,-0.00004644,0.000098
 61,-0.05912843,0.00004714,-0.00011155,0.05694851,-0.08324382,-0.038343
 07,0.07024625,0.00556266,0.00699615,-0.01541649,0.08980207,-0.04132453
 ,-0.12982901,0.12191909,-0.01209626,-0.01503393,0.02852470,0.04863436,
 0.13807503,0.07057683,0.12080415,-0.24308151,-0.00193601,-0.00141278,0
 .00197175,-0.07592582,-0.13408449,0.26548820,-0.08326604,-0.03842065,-
 0.07023448,0.00556521,0.00700920,0.01541011,0.00452343,0.00715418,0.01
 013089,0.08982515,-0.04140765,-0.13005870,-0.12202644,-0.01209954,-0.0
 1505561,-0.02850569,0.00714785,0.01041071,0.01686286,0.04872424,0.1383
 2511,-0.07056868,-0.12091102,-0.24285730,0.00194730,0.00142790,0.00199
 480,-0.01014204,-0.01689652,-0.02638105,0.07591035,0.13420190,0.265238
 39,0.00541156,-0.00303744,-0.00000123,0.00138671,-0.00051755,0.,-0.000
 14476,-0.00021816,0.00023167,-0.00014510,-0.00021855,-0.00023144,0.504
 08576,0.00012983,-0.00457876,0.00000180,0.00104932,0.00030401,-0.00000
 007,0.00004361,0.00020038,-0.00028356,0.00004405,0.00020072,0.00028356
 ,0.04651239,0.59808676,0.00000128,-0.00000098,0.00523207,0.00000065,0.
 00000034,0.00067032,-0.00096773,-0.00016289,0.00010905,0.00096724,0.00
 016337,0.00010879,-0.00003806,0.00001685,0.70450950,-0.00039469,0.0007
 3896,-0.00085375,-0.00024432,0.00009822,-0.00013021,0.00037758,0.00005
 402,-0.00012484,-0.00011717,-0.00004722,0.00004306,-0.08870288,-0.0419
 5349,0.07349560,0.11106533,0.00002836,-0.00003757,0.00054459,0.0000186
 5,-0.00002943,0.00000485,-0.00010471,-0.00006104,-0.00001430,0.0000546
 1,-0.00001019,-0.00000228,-0.04629276,-0.12350460,0.10828713,0.0478621
 5,0.13054597,-0.00000401,-0.00039429,-0.00033802,0.00007939,0.00000853
 ,-0.00000887,-0.00004836,0.00000977,0.00000800,-0.00009979,-0.00001336
 ,-0.00001444,0.08060787,0.10634271,-0.26305903,-0.08793148,-0.11835100
 ,0.27574510,-0.00039465,0.00073841,0.00085384,-0.00024411,0.00009835,0
 .00013028,-0.00011771,-0.00004710,-0.00004293,0.00037770,0.00005423,0.
 00012479,-0.08865280,-0.04193098,-0.07343276,0.00819845,0.00631773,0.0
 1065123,0.11100874,0.00002831,-0.00003756,-0.00054478,0.00001859,-0.00
 002942,-0.00000479,0.00005477,-0.00001022,0.00000229,-0.00010467,-0.00
 006102,0.00001434,-0.04626987,-0.12354006,-0.10832441,0.00631070,0.009
 24416,0.01556526,0.04783775,0.13058392,0.00000371,0.00039438,-0.000337
 97,-0.00007947,-0.00000849,-0.00000882,0.00009972,0.00001334,-0.000014
 48,0.00004847,-0.00000971,0.00000805,-0.08054380,-0.10637923,-0.263072
 42,-0.01064105,-0.01556964,-0.02683003,0.08787062,0.11839046,0.2757615
 9,-0.19878552,-0.00408002,0.00000637,-0.01500240,-0.00577069,0.0000043
 1,-0.01227876,-0.00193549,-0.00174754,-0.01227891,-0.00193378,0.001752
 10,-0.03660364,0.05609567,-0.00001209,0.00121882,0.00070131,0.00116980
 ,0.00122015,0.00070135,-0.00116887,0.83478359,-0.00362874,-0.09248211,
 -0.00000470,0.04534277,0.00212510,-0.00000550,-0.02563825,-0.00444020,
 -0.00016740,-0.02567370,-0.00444268,0.00017639,0.04652355,-0.01235970,
 0.00000352,-0.01146076,0.00324981,0.00269512,-0.01146176,0.00324988,-0
 .00269902,0.23670631,0.95393263,0.00000079,-0.00000484,-0.11283058,-0.
 00001850,-0.00000375,-0.00368610,0.04048987,0.00132848,0.00314508,-0.0
 4046405,-0.00132128,0.00315115,-0.00001058,0.00000778,0.00198032,0.002
 46897,-0.00048041,-0.00042437,-0.00246627,0.00048049,-0.00042441,-0.00
 002453,-0.00009788,0.27351643,-0.02196178,-0.04646644,0.00000458,0.005
 36773,0.00026808,-0.00000040,-0.00630302,-0.00151476,-0.00090101,-0.00
 630835,-0.00151424,0.00090374,-0.00478474,0.00047885,0.00000201,0.0024
 5135,-0.00082759,-0.00250346,0.00245025,-0.00082811,0.00250348,-0.3666
 4544,-0.32959743,0.00004250,0.35530156,-0.00800640,-0.00634838,0.00000
 488,-0.00345561,0.00180602,-0.00000069,-0.00025366,0.00106253,-0.00105
 766,-0.00025268,0.00106441,0.00105601,-0.02256884,0.00366235,-0.000004
 94,0.00377901,-0.00072750,-0.00039933,0.00377891,-0.00072635,0.0004013
 5,-0.33915043,-0.60252510,0.00006973,0.37656314,0.72098611,0.00000514,
 0.00000983,0.03175674,0.00000219,-0.00000030,-0.00072349,-0.00468071,-
 0.00033572,-0.00165974,0.00467852,0.00033172,-0.00166089,0.00000432,-0
 .00000161,-0.00658770,-0.00073224,-0.00017355,0.00081487,0.00073109,0.
 00017308,0.00081577,0.00003860,0.00006659,-0.08982606,-0.00004953,-0.0
 0009076,0.03465611,-0.03327852,0.05274811,-0.00000901,-0.01123835,-0.0
 0038358,0.00000161,0.00181700,0.00129868,-0.00032896,0.00181868,0.0012
 9970,0.00032857,-0.20475715,-0.02990592,-0.00001790,-0.03959049,0.0035
 5091,0.00074204,-0.03958043,0.00354914,-0.00075764,-0.18812448,0.08648
 272,-0.00001858,0.03732818,-0.01168854,0.00000243,0.50187302,0.0078973
 1,-0.00969391,0.00000559,0.00060476,0.00108444,0.00000019,0.00141621,-
 0.00038883,-0.00059507,0.00141862,-0.00038738,0.00059569,0.00648383,-0
 .09343592,0.00000737,-0.01168455,0.00237539,-0.00308301,-0.01168913,0.
 00237651,0.00308008,0.05901934,-0.24731479,0.00002169,0.00212084,-0.11
 853239,0.00002050,-0.11238972,0.47191885,0.00000092,0.00000310,0.01369
 114,0.00000017,0.00000079,0.00198596,-0.00365445,-0.00031478,0.0004122
 5,0.00365251,0.00031566,0.00041009,-0.00001944,-0.00000098,-0.07752365
 ,0.03284092,-0.00563574,0.00823684,-0.03285374,0.00563787,0.00822464,-
 0.00001708,0.00003377,-0.07474364,-0.00000179,0.00002094,0.03143762,0.
 00006240,-0.00006301,0.08390787,-0.00056047,0.00230566,-0.00000052,-0.
 00070799,-0.00003380,0.00000010,0.00003345,-0.00002111,0.00003750,0.00
 003358,-0.00002119,-0.00003749,-0.08473013,-0.00001202,0.00000314,0.00
 527221,-0.01306268,-0.00183943,0.00526848,-0.01305162,0.00184186,-0.00
 799325,-0.00802698,0.00000043,0.00367827,0.00134557,0.00000021,-0.0299
 6906,0.05632552,-0.00001049,0.65161950,0.00032765,0.00018893,-0.000000
 06,-0.00006726,-0.00001247,0.,-0.00000600,0.00002087,-0.00001813,-0.00
 000589,0.00002086,0.00001812,0.01556832,-0.20021694,0.00001056,0.00505
 925,-0.01725038,-0.00269237,0.00505985,-0.01725520,0.00269726,-0.00096
 974,0.00007416,-0.00000002,0.00035385,0.00046469,0.00000004,0.00413652
 ,-0.00552709,0.00000139,0.02972665,0.52487773,-0.00000011,0.00000040,0
 .00003540,-0.00000010,-0.00000001,-0.00003461,0.00001836,-0.00001350,-
 0.00001016,-0.00001839,0.00001341,-0.00001010,0.00000173,0.00000761,-0
 .10332362,-0.00947112,0.03272771,0.00355184,0.00947082,-0.03272884,0.0
 0356017,-0.00000106,-0.00000093,-0.00026298,0.,0.00000059,0.00120648,-
 0.00000521,0.00000947,0.00149205,-0.00000264,0.00001452,0.65432173,-0.
 00003391,0.00010059,-0.00000002,-0.00003429,0.00000965,0.,0.00001362,-
 0.00001810,-0.00001230,0.00001364,-0.00001810,0.00001231,-0.00673802,-
 0.00250224,-0.00000061,0.00033408,0.00068498,-0.00044319,0.00033395,0.
 00068506,0.00044325,0.00042333,-0.00148172,0.00000015,0.00012217,0.000
 60173,-0.00000004,0.00019695,0.00288728,-0.00000041,-0.33452717,0.0402
 7361,-0.00005047,0.36787627,0.00020436,-0.00073060,0.00000012,0.000246
 96,0.00001748,-0.00000004,-0.00000805,-0.00000280,-0.00002161,-0.00000
 810,-0.00000278,0.00002161,0.03935829,-0.00065257,0.00000664,-0.000807
 34,0.00123044,0.00094708,-0.00080702,0.00123031,-0.00094757,0.00174847
 ,0.00292789,-0.00000015,-0.00076506,-0.00071992,-0.00000003,0.00463717
 ,-0.01102484,0.00000199,0.03634570,-0.06725761,0.00000695,-0.04494403,
 0.06983607,-0.00000004,0.00000008,-0.00009619,-0.00000004,0.,0.0000036
 8,0.00000515,0.00000539,0.00000430,-0.00000513,-0.00000538,0.00000427,
 -0.00000383,-0.00000058,-0.00226065,0.00000698,-0.00002529,-0.00014271
 ,-0.00000670,0.00002531,-0.00014239,-0.00000014,-0.00000045,0.00043748
 ,0.00000010,0.00000010,-0.00011919,-0.00000045,0.00000146,0.00136017,-
 0.00005018,0.00000764,-0.05847713,0.00005686,-0.00000878,0.05668582,0.
 00004007,-0.00009826,-0.00000694,0.00003131,-0.00001999,-0.00001127,-0
 .00000604,0.00001303,0.00001924,-0.00003574,0.00002122,-0.00002329,0.0
 0218626,0.00597576,0.00794857,-0.00011308,-0.00087532,-0.00016088,0.00
 024495,0.00194407,0.00021905,0.00003322,0.00095706,0.00000385,-0.00034
 809,-0.00034616,-0.00001751,0.00175210,-0.00120527,0.00039505,-0.10367
 697,-0.04971836,-0.09292620,-0.01398474,-0.01760351,-0.03267099,0.1071
 9208,0.00001131,0.00002793,-0.00004267,-0.00000600,0.00001248,0.000006
 31,-0.00000468,-0.00000407,-0.00000477,0.00006544,0.00000063,0.0000094
 9,-0.01765519,-0.02208595,-0.03793500,-0.00055178,0.00173979,0.0005192
 6,0.00260241,-0.00676468,0.00115642,-0.00056604,-0.00099743,-0.0000254
 3,0.00086431,0.00026684,0.00022621,-0.00166775,0.00427515,0.00199635,-
 0.04590044,-0.10907847,-0.09537460,0.00185958,0.00257510,0.00654260,0.
 05302431,0.12208262,0.00003487,-0.00004489,-0.00002434,0.00002881,0.00
 001704,0.00000764,-0.00000455,-0.00001940,-0.00002777,0.00001921,-0.00
 002649,0.00003607,-0.00002927,0.00187413,0.00161261,0.00056498,-0.0004
 9070,0.00104822,-0.00046500,0.00082334,0.00141224,0.00010185,-0.000089
 85,-0.00001609,0.00011550,0.00024170,-0.00005533,0.00090743,0.00039215
 ,0.00055441,-0.09195525,-0.09965426,-0.25104165,0.00043501,0.00182070,
 0.00136510,0.10373389,0.10904237,0.27070976,0.00004006,-0.00009831,0.0
 0000702,0.00003132,-0.00001998,0.00001126,-0.00003570,0.00002124,0.000
 02328,-0.00000608,0.00001303,-0.00001928,0.00218893,0.00597516,-0.0079
 4934,0.00024481,0.00194435,-0.00021973,-0.00011297,-0.00087547,0.00016
 066,0.00003329,0.00095691,-0.00000405,-0.00034807,-0.00034603,0.000017
 52,0.00175255,-0.00120505,-0.00039458,-0.10374046,-0.04973845,0.092984
 38,-0.01399586,-0.01759785,0.03266841,0.00668466,0.00792453,-0.0134874
 8,0.10726350,0.00001137,0.00002797,0.00004261,-0.00000600,0.00001248,-
 0.00000634,0.00006547,0.00000059,-0.00000952,-0.00000467,-0.00000408,0
 .00000480,-0.01766803,-0.02207974,0.03793244,0.00260283,-0.00676484,-0
 .00115437,-0.00055165,0.00173974,-0.00051962,-0.00056625,-0.00099748,0
 .00002559,0.00086456,0.00026671,-0.00022601,-0.00166744,0.00427481,-0.
 00199737,-0.04591927,-0.10904908,0.09533721,0.00186173,0.00257382,-0.0
 0654211,0.00793142,0.00795007,-0.01388584,0.05304593,0.12204904,-0.000
 03487,0.00004483,-0.00002426,-0.00002880,-0.00001705,0.00000765,-0.000
 01921,0.00002653,0.00003608,0.00000453,0.00001941,-0.00002782,0.000032
 06,-0.00186841,0.00160441,0.00046421,-0.00082137,0.00141261,-0.0005652
 8,0.00049038,0.00104806,-0.00010172,0.00009033,-0.00001624,-0.00011574
 ,-0.00024193,-0.00005520,-0.00090673,-0.00039312,0.00055426,0.09201275
 ,0.09961531,-0.25100743,-0.00044055,-0.00182690,0.00137744,0.01349743,
 0.01388346,-0.02558089,-0.10379808,-0.10900147,0.27067135\\-0.00002367
 ,0.00000617,-0.00000318,-0.00000305,0.00002222,-0.00000148,0.00000660,
 -0.00000519,0.00000647,0.00000281,-0.00000522,-0.00000911,0.00003254,-
 0.00002084,-0.00000384,-0.00001283,0.00000830,-0.00000942,-0.00001347,
 0.00000906,0.00001021,-0.00012188,-0.00003217,0.00001530,0.00006243,0.
 00011370,-0.00000471,0.00008324,-0.00008286,0.00000009,-0.00002362,-0.
 00000085,-0.00000032,0.00001287,-0.00000121,-0.00000007,-0.00000094,-0
 .00000589,-0.00000379,-0.00000102,-0.00000521,0.00000386\\\@


 THE NUMBERS ARE MEANINGLESS, BUT THE TRENDS ARE IMPORTANT.
     -- LARRY BURGGRAF
 Job cpu time:       0 days  0 hours  0 minutes  5.2 seconds.
 File lengths (MBytes):  RWF=     14 Int=      0 D2E=      0 Chk=      2 Scr=      1
 Normal termination of Gaussian 09 at Thu Feb 28 08:05:07 2019.
