 Entering Gaussian System, Link 0=/usr/local/gaussian/2009-E.01/g09/g09
 Initial command:
 /usr/local/gaussian/2009-E.01/g09/l1.exe "/scratch/pbs.8312968.achilles/Gau-61358.inp" -scrdir="/scratch/pbs.8312968.achilles/"
 Entering Link 1 = /usr/local/gaussian/2009-E.01/g09/l1.exe PID=     61366.
  
 Copyright (c) 1988,1990,1992,1993,1995,1998,2003,2009,2015,
            Gaussian, Inc.  All Rights Reserved.
  
 This is part of the Gaussian(R) 09 program.  It is based on
 the Gaussian(R) 03 system (copyright 2003, Gaussian, Inc.),
 the Gaussian(R) 98 system (copyright 1998, Gaussian, Inc.),
 the Gaussian(R) 94 system (copyright 1995, Gaussian, Inc.),
 the Gaussian 92(TM) system (copyright 1992, Gaussian, Inc.),
 the Gaussian 90(TM) system (copyright 1990, Gaussian, Inc.),
 the Gaussian 88(TM) system (copyright 1988, Gaussian, Inc.),
 the Gaussian 86(TM) system (copyright 1986, Carnegie Mellon
 University), and the Gaussian 82(TM) system (copyright 1983,
 Carnegie Mellon University). Gaussian is a federally registered
 trademark of Gaussian, Inc.
  
 This software contains proprietary and confidential information,
 including trade secrets, belonging to Gaussian, Inc.
  
 This software is provided under written license and may be
 used, copied, transmitted, or stored only in accord with that
 written license.
  
 The following legend is applicable only to US Government
 contracts under FAR:
  
                    RESTRICTED RIGHTS LEGEND
  
 Use, reproduction and disclosure by the US Government is
 subject to restrictions as set forth in subparagraphs (a)
 and (c) of the Commercial Computer Software - Restricted
 Rights clause in FAR 52.227-19.
  
 Gaussian, Inc.
 340 Quinnipiac St., Bldg. 40, Wallingford CT 06492
  
  
 ---------------------------------------------------------------
 Warning -- This program may not be used in any manner that
 competes with the business of Gaussian, Inc. or will provide
 assistance to any competitor of Gaussian, Inc.  The licensee
 of this program is prohibited from giving any competitor of
 Gaussian, Inc. access to this program.  By using this program,
 the user acknowledges that Gaussian, Inc. is engaged in the
 business of creating and licensing software in the field of
 computational chemistry and represents and warrants to the
 licensee that it is not a competitor of Gaussian, Inc. and that
 it will not use this program in any manner prohibited above.
 ---------------------------------------------------------------
  

 Cite this work as:
 Gaussian 09, Revision E.01,
 M. J. Frisch, G. W. Trucks, H. B. Schlegel, G. E. Scuseria, 
 M. A. Robb, J. R. Cheeseman, G. Scalmani, V. Barone, B. Mennucci, 
 G. A. Petersson, H. Nakatsuji, M. Caricato, X. Li, H. P. Hratchian, 
 A. F. Izmaylov, J. Bloino, G. Zheng, J. L. Sonnenberg, M. Hada, 
 M. Ehara, K. Toyota, R. Fukuda, J. Hasegawa, M. Ishida, T. Nakajima, 
 Y. Honda, O. Kitao, H. Nakai, T. Vreven, J. A. Montgomery, Jr., 
 J. E. Peralta, F. Ogliaro, M. Bearpark, J. J. Heyd, E. Brothers, 
 K. N. Kudin, V. N. Staroverov, T. Keith, R. Kobayashi, J. Normand, 
 K. Raghavachari, A. Rendell, J. C. Burant, S. S. Iyengar, J. Tomasi, 
 M. Cossi, N. Rega, J. M. Millam, M. Klene, J. E. Knox, J. B. Cross, 
 V. Bakken, C. Adamo, J. Jaramillo, R. Gomperts, R. E. Stratmann, 
 O. Yazyev, A. J. Austin, R. Cammi, C. Pomelli, J. W. Ochterski, 
 R. L. Martin, K. Morokuma, V. G. Zakrzewski, G. A. Voth, 
 P. Salvador, J. J. Dannenberg, S. Dapprich, A. D. Daniels, 
 O. Farkas, J. B. Foresman, J. V. Ortiz, J. Cioslowski, 
 and D. J. Fox, Gaussian, Inc., Wallingford CT, 2013.
 
 ******************************************
 Gaussian 09:  ES64L-G09RevE.01 30-Nov-2015
                28-Feb-2019 
 ******************************************
 Default route:  MAXDISK=1700GB
 --------------------
 # nmr=mixed hf/3-21g
 --------------------
 1/38=1/1;
 2/12=2,17=6,18=5,40=1/2;
 3/5=5,10=1100000,11=9,16=1,25=1,30=1/1,2,8,3;
 4//1;
 5/5=2,38=5/2;
 8/6=1,10=90,11=11/1;
 10/13=100,45=16,47=3/2;
 6/7=2,8=2,9=2,10=2,28=1/1;
 99/9=1/99;
 -----
 AcOEt
 -----
 Symbolic Z-matrix:
 Charge =  0 Multiplicity = 1
 C                    -0.51991  -1.75007  0. 
 H                    -0.16325  -2.75888   0.00196 
 H                    -0.16324  -1.24737  -0.87463 
 H                    -0.16323  -1.24397   0.87267 
 C                    -4.11322  -0.2981    0. 
 H                    -4.46989  -0.8025    0.87365 
 H                    -4.46989  -0.8025   -0.87365 
 C                    -2.05991  -1.75005   0. 
 O                    -2.7834   -2.77967  0. 
 O                    -2.57322  -0.29812   0. 
 C                    -4.62654   1.15383  0. 
 H                    -5.69653   1.15385  -0.00196 
 H                    -4.27146   1.65767   0.87462 
 H                    -4.26827   1.65879  -0.87268 
 
                          Input orientation:                          
 ---------------------------------------------------------------------
 Center     Atomic      Atomic             Coordinates (Angstroms)
 Number     Number       Type             X           Y           Z
 ---------------------------------------------------------------------
      1          6           0       -0.519906   -1.750068   -0.000004
      2          1           0       -0.163252   -2.758877    0.001955
      3          1           0       -0.163236   -1.247368   -0.874634
      4          1           0       -0.163231   -1.243974    0.872666
      5          6           0       -4.113222   -0.298098    0.000000
      6          1           0       -4.469894   -0.802495    0.873652
      7          1           0       -4.469895   -0.802498   -0.873650
      8          6           0       -2.059906   -1.750049    0.000000
      9          8           0       -2.783401   -2.779674   -0.000005
     10          8           0       -2.573222   -0.298117    0.000000
     11          6           0       -4.626537    1.153834   -0.000003
     12          1           0       -5.696535    1.153847   -0.001960
     13          1           0       -4.271463    1.657670    0.874624
     14          1           0       -4.268267    1.658795   -0.872675
 ---------------------------------------------------------------------
                    Distance matrix (angstroms):
                    1          2          3          4          5
     1  C    0.000000
     2  H    1.070000   0.000000
     3  H    1.070000   1.747303   0.000000
     4  H    1.070000   1.747303   1.747303   0.000000
     5  C    3.875582   4.653783   4.155537   4.154354   0.000000
     6  H    4.154946   4.809829   4.669232   4.329232   1.070000
     7  H    4.154944   4.810538   4.329576   4.668177   1.070000
     8  C    1.540000   2.148263   2.148263   2.148263   2.514810
     9  O    2.486663   2.620232   3.158829   3.159939   2.815429
    10  O    2.514810   3.444313   2.733879   2.732077   1.540000
    11  C    5.029619   5.935505   5.143132   5.141219   1.540000
    12  H    5.935504   6.776919   6.094653   6.093600   2.148262
    13  H    5.143135   6.094656   5.326977   5.029624   2.148264
    14  H    5.141217   6.093599   5.029619   5.321993   2.148263
                    6          7          8          9         10
     6  H    0.000000
     7  H    1.747303   0.000000
     8  C    2.732978   2.732977   0.000000
     9  O    2.741673   2.741668   1.258400   0.000000
    10  O    2.148263   2.148263   1.540000   2.490441   0.000000
    11  C    2.148263   2.148263   3.875582   4.343919   2.514809
    12  H    2.469538   2.468152   4.653782   4.894787   3.444312
    13  H    2.468155   3.024610   4.155539   4.761232   2.733879
    14  H    3.024610   2.469538   4.154352   4.760923   2.732077
                   11         12         13         14
    11  C    0.000000
    12  H    1.070000   0.000000
    13  H    1.070000   1.747303   0.000000
    14  H    1.070000   1.747303   1.747303   0.000000
 Stoichiometry    C4H8O2
 Framework group  C1[X(C4H8O2)]
 Deg. of freedom    36
 Full point group                 C1      NOp   1
 Largest Abelian subgroup         C1      NOp   1
 Largest concise Abelian subgroup C1      NOp   1
                         Standard orientation:                         
 ---------------------------------------------------------------------
 Center     Atomic      Atomic             Coordinates (Angstroms)
 Number     Number       Type             X           Y           Z
 ---------------------------------------------------------------------
      1          6           0        2.278632   -0.862744    0.000002
      2          1           0        3.212645   -0.340712   -0.001957
      3          1           0        2.214503   -1.475776    0.874632
      4          1           0        2.212265   -1.478328   -0.872668
      5          6           0       -1.378572    0.419829   -0.000002
      6          1           0       -1.313323    1.034137   -0.873654
      7          1           0       -1.313322    1.034140    0.873648
      8          6           0        1.122171    0.154211   -0.000002
      9          8           0        1.258802    1.405172    0.000003
     10          8           0       -0.222110   -0.597126   -0.000002
     11          6           0       -2.722853   -0.331509    0.000001
     12          1           0       -3.526366    0.375076    0.001958
     13          1           0       -2.788932   -0.944340   -0.874626
     14          1           0       -2.787274   -0.947295    0.872673
 ---------------------------------------------------------------------
 Rotational constants (GHZ):      8.0348841      1.8587454      1.5523386
 Standard basis: 3-21G (6D, 7F)
 Converting basis for Fermi contact spin-spin IFCMod=1.
 AO basis functions are being uncontracted.
 There are   158 symmetry adapted cartesian basis functions of A   symmetry.
 There are   158 symmetry adapted basis functions of A   symmetry.
   158 basis functions,   158 primitive gaussians,   158 cartesian basis functions
    24 alpha electrons       24 beta electrons
       nuclear repulsion energy       232.8414879617 Hartrees.
 NAtoms=   14 NActive=   14 NUniq=   14 SFac= 1.00D+00 NAtFMM=   60 NAOKFM=F Big=F
 Integral buffers will be    131072 words long.
 Raffenetti 1 integral format.
 Two-electron integral symmetry is turned on.
 One-electron integrals computed using PRISM.
 NBasis=   158 RedAO= T EigKep=  4.87D-03  NBF=   158
 NBsUse=   158 1.00D-06 EigRej= -1.00D+00 NBFU=   158
 ExpMin= 1.83D-01 ExpMax= 2.90D+03 ExpMxC= 2.90D+03 IAcc=4 IRadAn=    199590 AccDes= 0.00D+00
 Harris functional with IExCor=  205 and IRadAn=  199590 diagonalized for initial guess.
 HarFok:  IExCor=  205 AccDes= 0.00D+00 IRadAn=    199590 IDoV= 1 UseB2=F ITyADJ=14
 ICtDFT=  3500011 ScaDFX=  1.000000  1.000000  1.000000  1.000000
 FoFCou: FMM=F IPFlag=           0 FMFlag=      100000 FMFlg1=           0
         NFxFlg=           0 DoJE=T BraDBF=F KetDBF=T FulRan=T
         wScrn=  0.000000 ICntrl=     500 IOpCl=  0 I1Cent=   200000004 NGrid=           0
         NMat0=    1 NMatS0=      1 NMatT0=    0 NMatD0=    1 NMtDS0=    0 NMtDT0=    0
 Petite list used in FoFCou.
 Requested convergence on RMS density matrix=1.00D-08 within 128 cycles.
 Requested convergence on MAX density matrix=1.00D-06.
 Requested convergence on             energy=1.00D-06.
 No special actions if energy rises.
 Integral accuracy reduced to 1.0D-05 until final iterations.
 Initial convergence to 1.0D-05 achieved.  Increase integral accuracy.
 SCF Done:  E(RHF) =  -304.768373844     A.U. after   15 cycles
            NFock= 15  Conv=0.61D-08     -V/T= 2.0032
 Range of M.O.s used for correlation:     1   158
 NBasis=   158 NAE=    24 NBE=    24 NFC=     0 NFV=     0
 NROrb=    158 NOA=    24 NOB=    24 NVA=   134 NVB=   134
          IDoAtm=11111111111111
          Differentiating once with respect to Fermi-contact.
          Electric field/nuclear overlap derivatives assumed to be zero.
          There are    14 degrees of freedom in the 1st order CPHF.  IDoFFX=0 NUNeed=    14.
     14 vectors produced by pass  0 Test12= 2.30D-18 7.14D-11 XBig12= 2.58D+01 2.31D+00.
 AX will form    14 AO Fock derivatives at one time.
     14 vectors produced by pass  1 Test12= 2.30D-18 7.14D-11 XBig12= 8.04D-01 2.86D-01.
     14 vectors produced by pass  2 Test12= 2.30D-18 7.14D-11 XBig12= 2.40D-02 5.06D-02.
     14 vectors produced by pass  3 Test12= 2.30D-18 7.14D-11 XBig12= 1.17D-03 1.27D-02.
     14 vectors produced by pass  4 Test12= 2.30D-18 7.14D-11 XBig12= 2.68D-05 1.41D-03.
     14 vectors produced by pass  5 Test12= 2.30D-18 7.14D-11 XBig12= 4.77D-07 2.45D-04.
     14 vectors produced by pass  6 Test12= 2.30D-18 7.14D-11 XBig12= 7.54D-09 3.02D-05.
     14 vectors produced by pass  7 Test12= 2.30D-18 7.14D-11 XBig12= 1.21D-10 3.05D-06.
     14 vectors produced by pass  8 Test12= 2.30D-18 7.14D-11 XBig12= 1.28D-12 2.74D-07.
     14 vectors produced by pass  9 Test12= 2.30D-18 7.14D-11 XBig12= 1.57D-14 3.88D-08.
     11 vectors produced by pass 10 Test12= 2.30D-18 7.14D-11 XBig12= 1.24D-16 3.08D-09.
      6 vectors produced by pass 11 Test12= 2.30D-18 7.14D-11 XBig12= 1.12D-18 2.13D-10.
 InvSVY:  IOpt=1 It=  1 EMax= 3.55D-15
 Solved reduced A of dimension   157 with    14 vectors.
 Fermi Contact (FC) contribution to K (Hz):
                1             2             3             4             5 
      1  0.123400D+11
      2  0.195316D+02  0.123400D+11
      3  0.203767D+02 -0.101057D+01  0.123400D+11
      4  0.203736D+02 -0.100976D+01 -0.145411D+01  0.123400D+11
      5  0.426550D+00  0.149620D+00  0.106536D-01  0.100095D-01  0.123400D+11
      6 -0.706231D-01 -0.681050D-02  0.774526D-02  0.925665D-02  0.227870D+02
      7 -0.707620D-01 -0.679077D-02  0.926803D-02  0.769907D-02  0.227866D+02
      8  0.516717D+02 -0.292889D+01 -0.856830D+01 -0.854757D+01 -0.299085D+01
      9 -0.100032D+02  0.766829D+00  0.505695D+01  0.504604D+01  0.135447D+00
     10  0.143756D+02  0.132198D+01 -0.190352D+01 -0.189911D+01 -0.164058D+02
     11  0.200143D-01  0.365942D-01  0.393425D-01  0.399484D-01  0.275682D+02
     12  0.829602D-01  0.122680D-01  0.301878D-02  0.300302D-02 -0.102552D+01
     13  0.109043D-01 -0.240105D-03 -0.234334D-02 -0.179375D-02 -0.219931D+01
     14  0.110918D-01 -0.223038D-03 -0.180749D-02 -0.231954D-02 -0.220087D+01
                6             7             8             9            10 
      6  0.123400D+11
      7 -0.748535D+00  0.123400D+11
      8  0.353690D+00  0.353907D+00  0.123400D+11
      9 -0.257778D-01 -0.248968D-01  0.336743D+02  0.123400D+11
     10  0.596702D+00  0.596034D+00 -0.636145D+02  0.230249D+02  0.123400D+11
     11 -0.136019D+01 -0.135991D+01  0.326947D+01 -0.447607D+00  0.546015D+01
     12  0.132364D+00  0.133315D+00  0.136444D+00 -0.683170D-01  0.235912D+01
     13  0.223264D+00  0.537991D+00 -0.147563D+00  0.235923D-01  0.945791D-01
     14  0.537665D+00  0.221860D+00 -0.147462D+00  0.235778D-01  0.994402D-01
               11            12            13            14 
     11  0.123400D+11
     12  0.186523D+02  0.123400D+11
     13  0.189714D+02 -0.933893D+00  0.123400D+11
     14  0.189721D+02 -0.934345D+00 -0.899666D+00  0.123400D+11
 Fermi Contact (FC) contribution to J (Hz):
                1             2             3             4             5 
      1  0.243533D+11
      2  0.153262D+03  0.385007D+12
      3  0.159894D+03 -0.315299D+02  0.385007D+12
      4  0.159870D+03 -0.315044D+02 -0.453680D+02  0.385007D+12
      5  0.841808D+00  0.117405D+01  0.835980D-01  0.785438D-01  0.243533D+11
      6 -0.554172D+00 -0.212487D+00  0.241652D+00  0.288807D+00  0.178807D+03
      7 -0.555263D+00 -0.211872D+00  0.289162D+00  0.240210D+00  0.178804D+03
      8  0.101975D+03 -0.229827D+02 -0.672346D+02 -0.670719D+02 -0.590252D+01
      9  0.106452D+02 -0.324466D+01 -0.213974D+02 -0.213512D+02 -0.144140D+00
     10 -0.152982D+02 -0.559365D+01  0.805431D+01  0.803567D+01  0.174588D+02
     11  0.394988D-01  0.287151D+00  0.308717D+00  0.313471D+00  0.544066D+02
     12  0.650981D+00  0.382762D+00  0.941858D-01  0.936940D-01 -0.804718D+01
     13  0.855647D-01 -0.749127D-02 -0.731120D-01 -0.559650D-01 -0.172577D+02
     14  0.870362D-01 -0.695878D-02 -0.563937D-01 -0.723695D-01 -0.172700D+02
                6             7             8             9            10 
      6  0.385007D+12
      7 -0.233543D+02  0.385007D+12
      8  0.277537D+01  0.277708D+01  0.243533D+11
      9  0.109073D+00  0.105345D+00 -0.358355D+02  0.708114D+10
     10 -0.252481D+01 -0.252198D+01  0.676973D+02  0.132125D+02  0.708114D+10
     11 -0.106733D+02 -0.106711D+02  0.645239D+01  0.476335D+00 -0.581059D+01
     12  0.412974D+01  0.415941D+01  0.107066D+01  0.289068D+00 -0.998207D+01
     13  0.696581D+01  0.167853D+02 -0.115791D+01 -0.998256D-01 -0.400190D+00
     14  0.167751D+02  0.692201D+01 -0.115712D+01 -0.997641D-01 -0.420759D+00
               11            12            13            14 
     11  0.243533D+11
     12  0.146363D+03  0.385007D+12
     13  0.148866D+03 -0.291374D+02  0.385007D+12
     14  0.148872D+03 -0.291515D+02 -0.280695D+02  0.385007D+12
 End of Minotr F.D. properties file   721 does not exist.
 End of Minotr F.D. properties file   722 does not exist.
 End of Minotr F.D. properties file   788 does not exist.

 **********************************************************************

            Population analysis using the SCF density.

 **********************************************************************

 Orbital symmetries:
       Occupied  (A) (A) (A) (A) (A) (A) (A) (A) (A) (A) (A) (A)
                 (A) (A) (A) (A) (A) (A) (A) (A) (A) (A) (A) (A)
       Virtual   (A) (A) (A) (A) (A) (A) (A) (A) (A) (A) (A) (A)
                 (A) (A) (A) (A) (A) (A) (A) (A) (A) (A) (A) (A)
                 (A) (A) (A) (A) (A) (A) (A) (A) (A) (A) (A) (A)
                 (A) (A) (A) (A) (A) (A) (A) (A) (A) (A) (A) (A)
                 (A) (A) (A) (A) (A) (A) (A) (A) (A) (A) (A) (A)
                 (A) (A) (A) (A) (A) (A) (A) (A) (A) (A) (A) (A)
                 (A) (A) (A) (A) (A) (A) (A) (A) (A) (A) (A) (A)
                 (A) (A) (A) (A) (A) (A) (A) (A) (A) (A) (A) (A)
                 (A) (A) (A) (A) (A) (A) (A) (A) (A) (A) (A) (A)
                 (A) (A) (A) (A) (A) (A) (A) (A) (A) (A) (A) (A)
                 (A) (A) (A) (A) (A) (A) (A) (A) (A) (A) (A) (A)
                 (A) (A)
 The electronic state is 1-A.
 Alpha  occ. eigenvalues --  -20.55120 -20.53822 -11.39618 -11.27456 -11.23670
 Alpha  occ. eigenvalues --  -11.20676  -1.40222  -1.31436  -1.04090  -1.01087
 Alpha  occ. eigenvalues --   -0.85248  -0.75526  -0.66335  -0.65710  -0.63052
 Alpha  occ. eigenvalues --   -0.61555  -0.58396  -0.56019  -0.54353  -0.51952
 Alpha  occ. eigenvalues --   -0.49942  -0.49199  -0.44162  -0.42855
 Alpha virt. eigenvalues --    0.15636   0.25936   0.27780   0.29332   0.32956
 Alpha virt. eigenvalues --    0.33362   0.34168   0.34859   0.35614   0.37410
 Alpha virt. eigenvalues --    0.37700   0.41800   0.44903   0.57343   0.79830
 Alpha virt. eigenvalues --    0.83201   0.83795   0.85701   0.89302   0.91970
 Alpha virt. eigenvalues --    0.92391   0.94975   1.00014   1.01462   1.04459
 Alpha virt. eigenvalues --    1.14271   1.15449   1.22671   1.23561   1.23838
 Alpha virt. eigenvalues --    1.26047   1.26659   1.31836   1.34747   1.43547
 Alpha virt. eigenvalues --    1.63428   1.72402   1.77988   1.79847   1.82316
 Alpha virt. eigenvalues --    1.92938   1.93147   1.98058   2.23552   2.98154
 Alpha virt. eigenvalues --    3.06845   5.60509   5.66322   5.69130   5.82273
 Alpha virt. eigenvalues --    5.90006   5.95637   5.98511   6.00474   6.02719
 Alpha virt. eigenvalues --    6.05741   6.20589   6.27910   7.79713   7.80985
 Alpha virt. eigenvalues --    7.82509   7.83606   7.90108   7.92209   7.98044
 Alpha virt. eigenvalues --    8.05728   8.87127   9.12734   9.33197   9.40443
 Alpha virt. eigenvalues --   11.36014  11.43729  11.43814  11.47472  11.49941
 Alpha virt. eigenvalues --   11.61487  17.87366  17.94674  35.31641  35.32288
 Alpha virt. eigenvalues --   35.33713  35.34956  35.41070  35.41608  35.45793
 Alpha virt. eigenvalues --   35.53108  38.22100  38.45812  38.64547  38.71411
 Alpha virt. eigenvalues --   73.84585  73.91212 122.58710 122.59307 122.60520
 Alpha virt. eigenvalues --  122.61926 122.67677 122.68144 122.71986 122.79139
 Alpha virt. eigenvalues --  238.74581 238.96517 239.10101 239.15587 394.87639
 Alpha virt. eigenvalues --  394.88368 394.89305 394.90814 394.96240 394.96610
 Alpha virt. eigenvalues --  394.99968 395.06835 449.95843 450.016961125.23075
 Alpha virt. eigenvalues -- 1125.436421125.553501125.603031291.928341291.93736
 Alpha virt. eigenvalues -- 1291.943991291.959901292.010761292.013851292.04308
 Alpha virt. eigenvalues -- 1292.108902109.763362109.817424150.750454150.94775
 Alpha virt. eigenvalues -- 4151.055044151.101807774.194987774.24618
          Condensed to atoms (all electrons):
               1          2          3          4          5          6
     1  C    5.568149   0.352869   0.356449   0.356375   0.002656   0.000045
     2  H    0.352869   0.473040  -0.020079  -0.020093  -0.000080   0.000002
     3  H    0.356449  -0.020079   0.454105  -0.017949  -0.000064   0.000004
     4  H    0.356375  -0.020093  -0.017949   0.454166  -0.000064  -0.000013
     5  C    0.002656  -0.000080  -0.000064  -0.000064   5.162554   0.359337
     6  H    0.000045   0.000002   0.000004  -0.000013   0.359337   0.530942
     7  H    0.000045   0.000002  -0.000013   0.000004   0.359350  -0.038239
     8  C    0.182654  -0.043232  -0.035155  -0.035141  -0.053601  -0.004016
     9  O   -0.068171   0.002916   0.000908   0.000912   0.002919   0.002751
    10  O   -0.051215   0.001316   0.002108   0.002125   0.199480  -0.026671
    11  C   -0.000012   0.000000  -0.000002  -0.000002   0.218611  -0.047909
    12  H    0.000001  -0.000000  -0.000000  -0.000000  -0.045492   0.000514
    13  H   -0.000001   0.000000   0.000000   0.000000  -0.043212  -0.003123
    14  H   -0.000001   0.000000   0.000000   0.000000  -0.043201   0.003478
               7          8          9         10         11         12
     1  C    0.000045   0.182654  -0.068171  -0.051215  -0.000012   0.000001
     2  H    0.000002  -0.043232   0.002916   0.001316   0.000000  -0.000000
     3  H   -0.000013  -0.035155   0.000908   0.002108  -0.000002  -0.000000
     4  H    0.000004  -0.035141   0.000912   0.002125  -0.000002  -0.000000
     5  C    0.359350  -0.053601   0.002919   0.199480   0.218611  -0.045492
     6  H   -0.038239  -0.004016   0.002751  -0.026671  -0.047909   0.000514
     7  H    0.530939  -0.004015   0.002750  -0.026669  -0.047918   0.000502
     8  C   -0.004015   4.550300   0.464980   0.213465   0.003087  -0.000059
     9  O    0.002750   0.464980   8.196212  -0.029566   0.000106   0.000002
    10  O   -0.026669   0.213465  -0.029566   8.341203  -0.024576   0.001077
    11  C   -0.047918   0.003087   0.000106  -0.024576   5.429198   0.364098
    12  H    0.000502  -0.000059   0.000002   0.001077   0.364098   0.517767
    13  H    0.003477  -0.000068  -0.000001   0.001265   0.370934  -0.024230
    14  H   -0.003104  -0.000068  -0.000001   0.001270   0.370885  -0.024209
              13         14
     1  C   -0.000001  -0.000001
     2  H    0.000000   0.000000
     3  H    0.000000   0.000000
     4  H    0.000000   0.000000
     5  C   -0.043212  -0.043201
     6  H   -0.003123   0.003478
     7  H    0.003477  -0.003104
     8  C   -0.000068  -0.000068
     9  O   -0.000001  -0.000001
    10  O    0.001265   0.001270
    11  C    0.370934   0.370885
    12  H   -0.024230  -0.024209
    13  H    0.496238  -0.024975
    14  H   -0.024975   0.496143
 Mulliken charges:
               1
     1  C   -0.699841
     2  H    0.253339
     3  H    0.259687
     4  H    0.259679
     5  C   -0.119193
     6  H    0.222897
     7  H    0.222888
     8  C    0.760868
     9  O   -0.576718
    10  O   -0.604613
    11  C   -0.636501
    12  H    0.210030
    13  H    0.223694
    14  H    0.223782
 Sum of Mulliken charges =  -0.00000
 Mulliken charges with hydrogens summed into heavy atoms:
               1
     1  C    0.072864
     5  C    0.326593
     8  C    0.760868
     9  O   -0.576718
    10  O   -0.604613
    11  C    0.021006
 Electronic spatial extent (au):  <R**2>=            784.9354
 Charge=             -0.0000 electrons
 Dipole moment (field-independent basis, Debye):
    X=             -0.3528    Y=             -1.3802    Z=              0.0004  Tot=              1.4246
 Quadrupole moment (field-independent basis, Debye-Ang):
   XX=            -30.6612   YY=            -41.5646   ZZ=            -35.7744
   XY=             -6.2382   XZ=              0.0004   YZ=             -0.0006
 Traceless Quadrupole moment (field-independent basis, Debye-Ang):
   XX=              5.3389   YY=             -5.5645   ZZ=              0.2256
   XY=             -6.2382   XZ=              0.0004   YZ=             -0.0006
 Octapole moment (field-independent basis, Debye-Ang**2):
  XXX=              6.5883  YYY=             -4.4879  ZZZ=              0.0013  XYY=             -3.4577
  XXY=             -5.6469  XXZ=              0.0022  XZZ=              1.7434  YZZ=              0.1795
  YYZ=              0.0009  XYZ=             -0.0036
 Hexadecapole moment (field-independent basis, Debye-Ang**3):
 XXXX=           -758.2201 YYYY=           -184.9165 ZZZZ=            -48.8519 XXXY=            -10.9847
 XXXZ=             -0.0215 YYYX=             -7.8673 YYYZ=              0.0030 ZZZX=              0.0230
 ZZZY=             -0.0041 XXYY=           -163.3526 XXZZ=           -139.0049 YYZZ=            -33.6272
 XXYZ=             -0.0042 YYXZ=             -0.0080 ZZXY=              0.6687
 N-N= 2.328414879617D+02 E-N=-1.180598305854D+03  KE= 3.038086267029D+02
 1\1\ WCSS.PL-BEM-WN1531\SP\RHF\Gen\C4H8O2\ROOT\28-Feb-2019\0\\# nmr=mi
 xed hf/3-21g\\AcOEt\\0,1\C,0,-0.519906,-1.75006828,-0.00000358\H,0,-0.
 16325208,-2.75887656,0.00195517\H,0,-0.1632355,-1.24736756,-0.87463386
 \H,0,-0.16323088,-1.24397389,0.8726655\C,0,-4.11322172,-0.29809818,0.\
 H,0,-4.46989428,-0.80249527,0.87365225\H,0,-4.46989479,-0.80249811,-0.
 8736504\C,0,-2.059906,-1.75004931,0.\O,0,-2.78340063,-2.77967356,-0.00
 000488\O,0,-2.57322172,-0.29811715,0.\C,0,-4.6265367,1.15383423,-0.000
 00272\H,0,-5.69653491,1.15384668,-0.00196009\H,0,-4.27146302,1.6576703
 3,0.87462398\H,0,-4.26826721,1.65879499,-0.8726754\\Version=ES64L-G09R
 evE.01\State=1-A\HF=-304.7683738\RMSD=6.067e-09\Dipole=0.2543698,0.499
 4265,-0.0001596\Quadrupole=5.0341181,-5.201876,0.1677579,-3.427133,-0.
 0005218,-0.0001253\PG=C01 [X(C4H8O2)]\\@


 ERROR IS THE FORCE THAT WELDS MEN TOGETHER....
 TRUTH IS COMMUNICATED TO MEN ONLY BY DEEDS OF TRUTH.
           TOLSTOI,MY RELIGION
 Job cpu time:       0 days  0 hours  0 minutes 31.6 seconds.
 File lengths (MBytes):  RWF=     25 Int=      0 D2E=      0 Chk=      3 Scr=      1
 Normal termination of Gaussian 09 at Thu Feb 28 08:05:20 2019.
 Link1:  Proceeding to internal job step number  2.
 ----------------------------------------------------------------------
 #N Geom=AllCheck Guess=TCheck SCRF=Check GenChk RHF/ChkBas NMR=ReadFC 
 IOp(3/6=22)
 ----------------------------------------------------------------------
 1/29=7,38=1,40=1/1;
 2/12=2,40=1/2;
 3/5=7,6=22,11=1,14=-4,16=1,25=1,30=1,67=1,70=2,82=7,116=1/1,2,8,3;
 4/5=101/1;
 5/5=2,38=6/2;
 8/6=1,10=90,11=11/1;
 10/13=100,45=16,47=4/2;
 6/7=2,8=2,9=2,10=2,28=1/1;
 99/9=1/99;
 Structure from the checkpoint file:  "/scratch/pbs.8312968.achilles/Gau-61366.chk"
 -----
 AcOEt
 -----
 Charge =  0 Multiplicity = 1
 Z-Matrix found in file.
 C,0,-0.519906,-1.75006828,-0.00000358
 H,0,-0.16325208,-2.75887656,0.00195517
 H,0,-0.1632355,-1.24736756,-0.87463386
 H,0,-0.16323088,-1.24397389,0.8726655
 C,0,-4.11322172,-0.29809818,0.
 H,0,-4.46989428,-0.80249527,0.87365225
 H,0,-4.46989479,-0.80249811,-0.8736504
 C,0,-2.059906,-1.75004931,0.
 O,0,-2.78340063,-2.77967356,-0.00000488
 O,0,-2.57322172,-0.29811715,0.
 C,0,-4.6265367,1.15383423,-0.00000272
 H,0,-5.69653491,1.15384668,-0.00196009
 H,0,-4.27146302,1.65767033,0.87462398
 H,0,-4.26826721,1.65879499,-0.8726754
 Recover connectivity data from disk.
                          Input orientation:                          
 ---------------------------------------------------------------------
 Center     Atomic      Atomic             Coordinates (Angstroms)
 Number     Number       Type             X           Y           Z
 ---------------------------------------------------------------------
      1          6           0       -0.519906   -1.750068   -0.000004
      2          1           0       -0.163252   -2.758877    0.001955
      3          1           0       -0.163235   -1.247368   -0.874634
      4          1           0       -0.163231   -1.243974    0.872666
      5          6           0       -4.113222   -0.298098    0.000000
      6          1           0       -4.469894   -0.802495    0.873652
      7          1           0       -4.469895   -0.802498   -0.873650
      8          6           0       -2.059906   -1.750049    0.000000
      9          8           0       -2.783401   -2.779674   -0.000005
     10          8           0       -2.573222   -0.298117    0.000000
     11          6           0       -4.626537    1.153834   -0.000003
     12          1           0       -5.696535    1.153847   -0.001960
     13          1           0       -4.271463    1.657670    0.874624
     14          1           0       -4.268267    1.658795   -0.872675
 ---------------------------------------------------------------------
                    Distance matrix (angstroms):
                    1          2          3          4          5
     1  C    0.000000
     2  H    1.070000   0.000000
     3  H    1.070000   1.747303   0.000000
     4  H    1.070000   1.747303   1.747303   0.000000
     5  C    3.875582   4.653783   4.155537   4.154354   0.000000
     6  H    4.154946   4.809829   4.669232   4.329232   1.070000
     7  H    4.154944   4.810538   4.329576   4.668177   1.070000
     8  C    1.540000   2.148263   2.148263   2.148263   2.514810
     9  O    2.486663   2.620232   3.158829   3.159939   2.815429
    10  O    2.514810   3.444313   2.733879   2.732077   1.540000
    11  C    5.029619   5.935505   5.143132   5.141219   1.540000
    12  H    5.935504   6.776919   6.094653   6.093600   2.148262
    13  H    5.143135   6.094656   5.326977   5.029624   2.148264
    14  H    5.141217   6.093599   5.029619   5.321993   2.148263
                    6          7          8          9         10
     6  H    0.000000
     7  H    1.747303   0.000000
     8  C    2.732978   2.732977   0.000000
     9  O    2.741673   2.741668   1.258400   0.000000
    10  O    2.148263   2.148263   1.540000   2.490441   0.000000
    11  C    2.148263   2.148263   3.875582   4.343919   2.514809
    12  H    2.469538   2.468152   4.653782   4.894787   3.444312
    13  H    2.468155   3.024610   4.155539   4.761232   2.733879
    14  H    3.024610   2.469538   4.154352   4.760923   2.732077
                   11         12         13         14
    11  C    0.000000
    12  H    1.070000   0.000000
    13  H    1.070000   1.747303   0.000000
    14  H    1.070000   1.747303   1.747303   0.000000
 Stoichiometry    C4H8O2
 Framework group  C1[X(C4H8O2)]
 Deg. of freedom    36
 Full point group                 C1      NOp   1
 Largest Abelian subgroup         C1      NOp   1
 Largest concise Abelian subgroup C1      NOp   1
                         Standard orientation:                         
 ---------------------------------------------------------------------
 Center     Atomic      Atomic             Coordinates (Angstroms)
 Number     Number       Type             X           Y           Z
 ---------------------------------------------------------------------
      1          6           0        2.278632   -0.862744    0.000002
      2          1           0        3.212645   -0.340712   -0.001957
      3          1           0        2.214503   -1.475776    0.874632
      4          1           0        2.212265   -1.478328   -0.872668
      5          6           0       -1.378572    0.419829   -0.000002
      6          1           0       -1.313323    1.034137   -0.873654
      7          1           0       -1.313322    1.034140    0.873648
      8          6           0        1.122171    0.154211   -0.000002
      9          8           0        1.258802    1.405172    0.000003
     10          8           0       -0.222110   -0.597126   -0.000002
     11          6           0       -2.722853   -0.331509    0.000001
     12          1           0       -3.526366    0.375076    0.001958
     13          1           0       -2.788932   -0.944340   -0.874626
     14          1           0       -2.787274   -0.947295    0.872673
 ---------------------------------------------------------------------
 Rotational constants (GHZ):      8.0348841      1.8587454      1.5523386
 Basis read from chk: "/scratch/pbs.8312968.achilles/Gau-61366.chk" (6D, 7F)
 There are    70 symmetry adapted cartesian basis functions of A   symmetry.
 There are    70 symmetry adapted basis functions of A   symmetry.
    70 basis functions,   114 primitive gaussians,    70 cartesian basis functions
    24 alpha electrons       24 beta electrons
       nuclear repulsion energy       232.8414879617 Hartrees.
 NAtoms=   14 NActive=   14 NUniq=   14 SFac= 1.00D+00 NAtFMM=   60 NAOKFM=F Big=F
 Integral buffers will be    131072 words long.
 Raffenetti 1 integral format.
 Two-electron integral symmetry is turned on.
 One-electron integrals computed using PRISM.
 NBasis=    70 RedAO= T EigKep=  1.43D-02  NBF=    70
 NBsUse=    70 1.00D-06 EigRej= -1.00D+00 NBFU=    70
 Initial guess from the checkpoint file:  "/scratch/pbs.8312968.achilles/Gau-61366.chk"
 B after Tr=    -0.000000   -0.000000   -0.000000
         Rot=    1.000000    0.000000    0.000000    0.000000 Ang=   0.00 deg.
 Keep R1 ints in memory in canonical form, NReq=3951444.
 Requested convergence on RMS density matrix=1.00D-08 within 128 cycles.
 Requested convergence on MAX density matrix=1.00D-06.
 Requested convergence on             energy=1.00D-06.
 No special actions if energy rises.
 SCF Done:  E(RHF) =  -304.136843147     A.U. after   12 cycles
            NFock= 12  Conv=0.21D-08     -V/T= 2.0045
 Range of M.O.s used for correlation:     1    70
 NBasis=    70 NAE=    24 NBE=    24 NFC=     0 NFV=     0
 NROrb=     70 NOA=    24 NOB=    24 NVA=    46 NVB=    46
          IDoAtm=11111111111111
          Differentiating once with respect to magnetic field using GIAOs.
          Differentiating once with respect to nuclear magnetic moments.
          Differentiating once with respect to Fermi-contact and electric field gradient.
          Electric field/nuclear overlap derivatives assumed to be zero.
 Keep R1, R2, and R3 ints in memory in canonical form, NReq=10668572.
 FoFJK:  IHMeth= 1 ICntrl=    6127 DoSepK=F KAlg= 0 I1Cent=   0 FoldK=F
 IRaf=         1 NMat=   1 IRICut=       1 DoRegI=T DoRafI=F ISym2E= 0.
          There are    45 degrees of freedom in the 1st order CPHF.  IDoFFX=0 NUNeed=    45.
     45 vectors produced by pass  0 Test12= 2.45D-15 2.22D-09 XBig12= 1.90D+01 2.29D+00.
 AX will form    45 AO Fock derivatives at one time.
     45 vectors produced by pass  1 Test12= 2.45D-15 2.22D-09 XBig12= 3.03D-01 1.92D-01.
     45 vectors produced by pass  2 Test12= 2.45D-15 2.22D-09 XBig12= 1.46D-03 9.66D-03.
     45 vectors produced by pass  3 Test12= 2.45D-15 2.22D-09 XBig12= 4.33D-06 5.23D-04.
     45 vectors produced by pass  4 Test12= 2.45D-15 2.22D-09 XBig12= 3.44D-08 3.61D-05.
     45 vectors produced by pass  5 Test12= 2.45D-15 2.22D-09 XBig12= 1.79D-10 4.21D-06.
     27 vectors produced by pass  6 Test12= 2.45D-15 2.22D-09 XBig12= 8.37D-13 1.57D-07.
      6 vectors produced by pass  7 Test12= 2.45D-15 2.22D-09 XBig12= 3.74D-15 1.20D-08.
 InvSVY:  IOpt=1 It=  1 EMax= 2.44D-15
 Solved reduced A of dimension   303 with    45 vectors.
 Calculating GIAO nuclear magnetic shielding tensors.
 SCF GIAO Magnetic shielding tensor (ppm):
      1  C    Isotropic =   188.5811   Anisotropy =    44.7848
   XX=   205.6800   YX=   -15.3921   ZX=    -0.0214
   XY=   -24.8714   YY=   186.6693   ZY=     0.0195
   XZ=    -0.0091   YZ=     0.0035   ZZ=   173.3940
   Eigenvalues:   173.3939   173.9117   218.4376
      2  H    Isotropic =    31.6979   Anisotropy =     9.0703
   XX=    37.4332   YX=     2.7335   ZX=    -0.0149
   XY=     0.3123   YY=    30.3011   ZY=    -0.0028
   XZ=    -0.0154   YZ=    -0.0046   ZZ=    27.3594
   Eigenvalues:    27.3594    29.9895    37.7448
      3  H    Isotropic =    31.5350   Anisotropy =     7.6381
   XX=    30.6501   YX=    -1.7876   ZX=     0.6740
   XY=    -1.1414   YY=    31.6999   ZY=    -4.0805
   XZ=     0.8220   YZ=    -4.3950   ZZ=    32.2551
   Eigenvalues:    27.6178    30.3602    36.6271
      4  H    Isotropic =    31.5349   Anisotropy =     7.6329
   XX=    30.6529   YX=    -1.7820   ZX=    -0.6627
   XY=    -1.1309   YY=    31.7209   ZY=     4.0864
   XZ=    -0.8086   YZ=     4.4006   ZZ=    32.2310
   Eigenvalues:    27.6131    30.3682    36.6235
      5  C    Isotropic =   154.5956   Anisotropy =    65.9410
   XX=   176.8363   YX=   -30.1818   ZX=    -0.0018
   XY=   -26.0846   YY=   162.1162   ZY=     0.0054
   XZ=    -0.0000   YZ=    -0.0045   ZZ=   124.8344
   Eigenvalues:   124.8344   140.3962   198.5563
      6  H    Isotropic =    29.7829   Anisotropy =     5.7228
   XX=    31.2351   YX=    -0.7495   ZX=     0.6508
   XY=    -0.3946   YY=    30.1986   ZY=    -4.6583
   XZ=     0.2087   YZ=    -3.6841   ZZ=    27.9149
   Eigenvalues:    24.7321    31.0184    33.5981
      7  H    Isotropic =    29.7834   Anisotropy =     5.7257
   XX=    31.2371   YX=    -0.7524   ZX=    -0.6496
   XY=    -0.3958   YY=    30.1997   ZY=     4.6595
   XZ=    -0.2080   YZ=     3.6865   ZZ=    27.9135
   Eigenvalues:    24.7299    31.0199    33.6006
      8  C    Isotropic =    13.1123   Anisotropy =   120.3989
   XX=  -117.4163   YX=     6.0444   ZX=     0.0014
   XY=   -23.7081   YY=    63.3749   ZY=    -0.0018
   XZ=     0.0029   YZ=     0.0010   ZZ=    93.3782
   Eigenvalues:  -117.8467    63.8053    93.3782
      9  O    Isotropic =  -238.0130   Anisotropy =   793.8021
   XX=  -463.3098   YX=   -75.4362   ZX=     0.0093
   XY=   -73.4481   YY=  -541.9177   ZY=    -0.0097
   XZ=     0.0029   YZ=     0.0990   ZZ=   291.1884
   Eigenvalues:  -586.7947  -418.4328   291.1884
     10  O    Isotropic =   113.0099   Anisotropy =   335.2991
   XX=   251.1582   YX=    90.1618   ZX=    -0.0013
   XY=   286.1686   YY=   -78.1245   ZY=    -0.0148
   XZ=    -0.0460   YZ=    -0.0089   ZZ=   165.9961
   Eigenvalues:  -163.5090   165.9961   336.5427
     11  C    Isotropic =   201.7075   Anisotropy =    18.9157
   XX=   213.1211   YX=     1.3972   ZX=    -0.0048
   XY=     5.6847   YY=   203.8417   ZY=    -0.0030
   XZ=     0.0050   YZ=     0.0074   ZZ=   188.1596
   Eigenvalues:   188.1596   202.6449   214.3180
     12  H    Isotropic =    33.2362   Anisotropy =    10.8854
   XX=    38.6824   YX=    -3.6916   ZX=    -0.0146
   XY=    -3.9639   YY=    32.4009   ZY=     0.0112
   XZ=    -0.0136   YZ=     0.0098   ZZ=    28.6251
   Eigenvalues:    28.6250    30.5903    40.4931
     13  H    Isotropic =    32.5341   Anisotropy =     9.6299
   XX=    31.7670   YX=     2.5686   ZX=     1.8281
   XY=     2.1737   YY=    32.0193   ZY=     5.0585
   XZ=     1.8701   YZ=     4.4330   ZZ=    33.8160
   Eigenvalues:    27.9456    30.7026    38.9540
     14  H    Isotropic =    32.5342   Anisotropy =     9.6252
   XX=    31.7639   YX=     2.5622   ZX=    -1.8141
   XY=     2.1694   YY=    32.0510   ZY=    -5.0696
   XZ=    -1.8573   YZ=    -4.4429   ZZ=    33.7877
   Eigenvalues:    27.9449    30.7066    38.9510
          There are    84 degrees of freedom in the 1st order CPHF.  IDoFFX=0 NUNeed=    84.
     70 vectors produced by pass  0 Test12= 1.31D-15 1.19D-09 XBig12= 7.49D+00 1.74D+00.
     70 vectors produced by pass  1 Test12= 1.31D-15 1.19D-09 XBig12= 3.43D-01 2.91D-01.
     70 vectors produced by pass  2 Test12= 1.31D-15 1.19D-09 XBig12= 8.56D-04 9.01D-03.
     70 vectors produced by pass  3 Test12= 1.31D-15 1.19D-09 XBig12= 2.97D-06 3.84D-04.
     70 vectors produced by pass  4 Test12= 1.31D-15 1.19D-09 XBig12= 9.60D-09 1.80D-05.
     64 vectors produced by pass  5 Test12= 1.31D-15 1.19D-09 XBig12= 1.50D-11 5.82D-07.
     31 vectors produced by pass  6 Test12= 1.31D-15 1.19D-09 XBig12= 2.73D-14 2.72D-08.
      6 vectors produced by pass  7 Test12= 1.31D-15 1.19D-09 XBig12= 7.01D-17 1.71D-09.
 InvSVY:  IOpt=1 It=  1 EMax= 3.89D-15
 Solved reduced A of dimension   451 with    70 vectors.
 Fermi Contact contribution taken from checkpoint file:
 "/scratch/pbs.8312968.achilles/Gau-61366.chk"
 There are a total of      111138 grid points.
 ElSum from          density=       95.9999303669
 Fermi Contact (FC) contribution to K (Hz):
                1             2             3             4             5 
      1  0.000000D+00
      2  0.195316D+02  0.000000D+00
      3  0.203767D+02 -0.101057D+01  0.000000D+00
      4  0.203736D+02 -0.100976D+01 -0.145411D+01  0.000000D+00
      5  0.426550D+00  0.149620D+00  0.106536D-01  0.100095D-01  0.000000D+00
      6 -0.706231D-01 -0.681050D-02  0.774526D-02  0.925665D-02  0.227870D+02
      7 -0.707620D-01 -0.679077D-02  0.926803D-02  0.769907D-02  0.227866D+02
      8  0.516717D+02 -0.292889D+01 -0.856830D+01 -0.854757D+01 -0.299085D+01
      9 -0.100032D+02  0.766829D+00  0.505695D+01  0.504604D+01  0.135447D+00
     10  0.143756D+02  0.132198D+01 -0.190352D+01 -0.189911D+01 -0.164058D+02
     11  0.200143D-01  0.365942D-01  0.393425D-01  0.399484D-01  0.275682D+02
     12  0.829602D-01  0.122680D-01  0.301878D-02  0.300302D-02 -0.102552D+01
     13  0.109043D-01 -0.240105D-03 -0.234334D-02 -0.179375D-02 -0.219931D+01
     14  0.110918D-01 -0.223038D-03 -0.180749D-02 -0.231954D-02 -0.220087D+01
                6             7             8             9            10 
      6  0.000000D+00
      7 -0.748535D+00  0.000000D+00
      8  0.353690D+00  0.353907D+00  0.000000D+00
      9 -0.257778D-01 -0.248968D-01  0.336743D+02  0.000000D+00
     10  0.596702D+00  0.596034D+00 -0.636145D+02  0.230249D+02  0.000000D+00
     11 -0.136019D+01 -0.135991D+01  0.326947D+01 -0.447607D+00  0.546015D+01
     12  0.132364D+00  0.133315D+00  0.136444D+00 -0.683170D-01  0.235912D+01
     13  0.223264D+00  0.537991D+00 -0.147563D+00  0.235923D-01  0.945791D-01
     14  0.537665D+00  0.221860D+00 -0.147462D+00  0.235778D-01  0.994402D-01
               11            12            13            14 
     11  0.000000D+00
     12  0.186523D+02  0.000000D+00
     13  0.189714D+02 -0.933893D+00  0.000000D+00
     14  0.189721D+02 -0.934345D+00 -0.899666D+00  0.000000D+00
 Fermi Contact (FC) contribution to J (Hz):
                1             2             3             4             5 
      1  0.000000D+00
      2  0.153262D+03  0.000000D+00
      3  0.159894D+03 -0.315299D+02  0.000000D+00
      4  0.159870D+03 -0.315044D+02 -0.453680D+02  0.000000D+00
      5  0.841808D+00  0.117405D+01  0.835980D-01  0.785438D-01  0.000000D+00
      6 -0.554172D+00 -0.212487D+00  0.241652D+00  0.288807D+00  0.178807D+03
      7 -0.555263D+00 -0.211872D+00  0.289162D+00  0.240210D+00  0.178804D+03
      8  0.101975D+03 -0.229827D+02 -0.672346D+02 -0.670719D+02 -0.590252D+01
      9  0.106452D+02 -0.324466D+01 -0.213974D+02 -0.213512D+02 -0.144140D+00
     10 -0.152982D+02 -0.559365D+01  0.805431D+01  0.803567D+01  0.174588D+02
     11  0.394988D-01  0.287151D+00  0.308717D+00  0.313471D+00  0.544066D+02
     12  0.650981D+00  0.382762D+00  0.941858D-01  0.936940D-01 -0.804718D+01
     13  0.855647D-01 -0.749127D-02 -0.731120D-01 -0.559650D-01 -0.172577D+02
     14  0.870362D-01 -0.695878D-02 -0.563937D-01 -0.723695D-01 -0.172700D+02
                6             7             8             9            10 
      6  0.000000D+00
      7 -0.233543D+02  0.000000D+00
      8  0.277537D+01  0.277708D+01  0.000000D+00
      9  0.109073D+00  0.105345D+00 -0.358355D+02  0.000000D+00
     10 -0.252481D+01 -0.252198D+01  0.676973D+02  0.132125D+02  0.000000D+00
     11 -0.106733D+02 -0.106711D+02  0.645239D+01  0.476335D+00 -0.581059D+01
     12  0.412974D+01  0.415941D+01  0.107066D+01  0.289068D+00 -0.998207D+01
     13  0.696581D+01  0.167853D+02 -0.115791D+01 -0.998256D-01 -0.400190D+00
     14  0.167751D+02  0.692201D+01 -0.115712D+01 -0.997641D-01 -0.420759D+00
               11            12            13            14 
     11  0.000000D+00
     12  0.146363D+03  0.000000D+00
     13  0.148866D+03 -0.291374D+02  0.000000D+00
     14  0.148872D+03 -0.291515D+02 -0.280695D+02  0.000000D+00
 Spin-dipolar (SD) contribution to K (Hz):
                1             2             3             4             5 
      1  0.000000D+00
      2 -0.388071D-01  0.000000D+00
      3 -0.290573D-01  0.197157D-01  0.000000D+00
      4 -0.290801D-01  0.197227D-01  0.183543D-01  0.000000D+00
      5  0.226469D-01 -0.548034D-03  0.350156D-02  0.352688D-02  0.000000D+00
      6  0.528128D-02  0.225826D-03 -0.598963D-03 -0.978719D-03 -0.393616D-01
      7  0.528279D-02  0.224230D-03 -0.975645D-03 -0.599698D-03 -0.393641D-01
      8  0.573199D-01 -0.355424D-01  0.864487D-01  0.861862D-01 -0.657828D-02
      9  0.767453D+00  0.760640D-01 -0.232603D+00 -0.231890D+00 -0.777355D-01
     10 -0.219847D+00  0.149534D-02 -0.828860D-02 -0.844141D-02  0.202219D+01
     11  0.360999D-03  0.539257D-03 -0.106091D-02 -0.106612D-02  0.395218D+00
     12  0.103463D-02  0.443022D-04 -0.105954D-03 -0.106066D-03  0.747365D-02
     13 -0.617078D-03 -0.197339D-03 -0.321367D-03 -0.158554D-03  0.839247D-02
     14 -0.624108D-03 -0.197154D-03 -0.158930D-03 -0.321491D-03  0.843584D-02
                6             7             8             9            10 
      6  0.000000D+00
      7  0.227545D-01  0.000000D+00
      8 -0.557368D-02 -0.557426D-02  0.000000D+00
      9 -0.350845D-01 -0.350744D-01  0.300427D+02  0.000000D+00
     10 -0.721709D-01 -0.721888D-01 -0.378000D+01  0.142997D+02  0.000000D+00
     11  0.136354D-02  0.136351D-02  0.245342D-01  0.268435D-01 -0.371568D-01
     12  0.350059D-02  0.353598D-02  0.884498D-04 -0.360686D-02 -0.124168D-01
     13  0.388875D-02  0.295643D-02  0.100043D-01 -0.202688D-01 -0.126974D-01
     14  0.295927D-02  0.385586D-02  0.100354D-01 -0.202678D-01 -0.128207D-01
               11            12            13            14 
     11  0.000000D+00
     12 -0.344377D-01  0.000000D+00
     13 -0.369548D-01  0.194803D-01  0.000000D+00
     14 -0.369417D-01  0.194796D-01  0.196802D-01  0.000000D+00
 Spin-dipolar (SD) contribution to J (Hz):
                1             2             3             4             5 
      1  0.000000D+00
      2 -0.304516D+00  0.000000D+00
      3 -0.228010D+00  0.615129D+00  0.000000D+00
      4 -0.228189D+00  0.615348D+00  0.572652D+00  0.000000D+00
      5  0.446943D-01 -0.430037D-02  0.274764D-01  0.276751D-01  0.000000D+00
      6  0.414417D-01  0.704576D-02 -0.186876D-01 -0.305360D-01 -0.308867D+00
      7  0.414535D-01  0.699596D-02 -0.304401D-01 -0.187105D-01 -0.308886D+00
      8  0.113122D+00 -0.278898D+00  0.678355D+00  0.676295D+00 -0.129824D-01
      9 -0.816708D+00 -0.321848D+00  0.984206D+00  0.981191D+00  0.827246D-01
     10  0.233957D+00 -0.632721D-02  0.350713D-01  0.357179D-01 -0.215198D+01
     11  0.712441D-03  0.423150D-02 -0.832483D-02 -0.836576D-02  0.779973D+00
     12  0.811865D-02  0.138223D-02 -0.330577D-02 -0.330925D-02  0.586450D-01
     13 -0.484215D-02 -0.615698D-02 -0.100266D-01 -0.494687D-02  0.658549D-01
     14 -0.489731D-02 -0.615120D-02 -0.495860D-02 -0.100305D-01  0.661952D-01
                6             7             8             9            10 
      6  0.000000D+00
      7  0.709940D+00  0.000000D+00
      8 -0.437361D-01 -0.437407D-01  0.000000D+00
      9  0.148452D+00  0.148409D+00 -0.319709D+02  0.000000D+00
     10  0.305375D+00  0.305451D+00  0.402260D+01  0.820566D+01  0.000000D+00
     11  0.106996D-01  0.106994D-01  0.484189D-01 -0.285664D-01  0.395416D-01
     12  0.109218D+00  0.110322D+00  0.694057D-03  0.152616D-01  0.525388D-01
     13  0.121329D+00  0.922403D-01  0.785026D-01  0.857629D-01  0.537262D-01
     14  0.923291D-01  0.120303D+00  0.787472D-01  0.857585D-01  0.542479D-01
               11            12            13            14 
     11  0.000000D+00
     12 -0.270229D+00  0.000000D+00
     13 -0.289981D+00  0.607784D+00  0.000000D+00
     14 -0.289878D+00  0.607762D+00  0.614021D+00  0.000000D+00
 Paramagnetic spin-orbit (PSO) contribution to K (Hz):
                1             2             3             4             5 
      1  0.000000D+00
      2  0.138853D+00  0.000000D+00
      3  0.141949D+00  0.354014D-01  0.000000D+00
      4  0.141918D+00  0.353880D-01  0.381312D-01  0.000000D+00
      5  0.501072D-02  0.139181D-01  0.935395D-02  0.934602D-02  0.000000D+00
      6  0.102368D-01  0.111262D-01  0.132846D-01  0.489444D-02  0.193378D-01
      7  0.102412D-01  0.111425D-01  0.488397D-02  0.132813D-01  0.193471D-01
      8 -0.638007D+00 -0.482884D-01 -0.350555D-02 -0.358360D-02 -0.899302D-01
      9 -0.135861D+01 -0.172784D+00 -0.326985D-01 -0.328850D-01 -0.223843D+00
     10 -0.362825D+00  0.926177D-02 -0.262389D-01 -0.263615D-01  0.142863D+01
     11  0.112833D-01  0.116444D-01  0.643453D-02  0.642558D-02 -0.127995D+00
     12  0.118601D-01  0.110889D-01  0.935147D-02  0.935825D-02  0.199134D-01
     13  0.645038D-02  0.941286D-02  0.492414D-02  0.254129D-03  0.252495D-02
     14  0.643908D-02  0.941838D-02  0.253058D-03  0.488590D-02  0.264941D-02
                6             7             8             9            10 
      6  0.000000D+00
      7  0.271193D-01  0.000000D+00
      8 -0.368768D-01 -0.368790D-01  0.000000D+00
      9 -0.863864D-01 -0.863843D-01 -0.140287D+02  0.000000D+00
     10  0.876576D-01  0.876234D-01 -0.488631D+01 -0.157501D+02  0.000000D+00
     11  0.841342D-02  0.841257D-02  0.369612D-02 -0.774870D-02  0.542072D-01
     12  0.338471D-02  0.330743D-02  0.705054D-02 -0.704527D-02  0.318306D-01
     13  0.248793D-02  0.310907D-01  0.337736D-02 -0.322241D-02  0.444637D-01
     14  0.310972D-01  0.257167D-02  0.337387D-02 -0.320676D-02  0.444719D-01
               11            12            13            14 
     11  0.000000D+00
     12  0.157151D+00  0.000000D+00
     13  0.147239D+00  0.359672D-01  0.000000D+00
     14  0.147210D+00  0.359641D-01  0.350047D-01  0.000000D+00
 Paramagnetic spin-orbit (PSO) contribution to J (Hz):
                1             2             3             4             5 
      1  0.000000D+00
      2  0.108957D+01  0.000000D+00
      3  0.111386D+01  0.110452D+01  0.000000D+00
      4  0.111362D+01  0.110410D+01  0.118969D+01  0.000000D+00
      5  0.988878D-02  0.109214D+00  0.733995D-01  0.733373D-01  0.000000D+00
      6  0.803275D-01  0.347137D+00  0.414480D+00  0.152706D+00  0.151742D+00
      7  0.803619D-01  0.347647D+00  0.152380D+00  0.414377D+00  0.151815D+00
      8 -0.125912D+01 -0.378914D+00 -0.275077D-01 -0.281202D-01 -0.177479D+00
      9  0.144580D+01  0.731096D+00  0.138356D+00  0.139145D+00  0.238210D+00
     10  0.386111D+00 -0.391891D-01  0.111024D+00  0.111543D+00 -0.152032D+01
     11  0.222680D-01  0.913727D-01  0.504911D-01  0.504209D-01 -0.252601D+00
     12  0.930654D-01  0.345972D+00  0.291765D+00  0.291977D+00  0.156259D+00
     13  0.506155D-01  0.293681D+00  0.153633D+00  0.792882D-02  0.198130D-01
     14  0.505268D-01  0.293853D+00  0.789538D-02  0.152440D+00  0.207897D-01
                6             7             8             9            10 
      6  0.000000D+00
      7  0.846121D+00  0.000000D+00
      8 -0.289369D+00 -0.289386D+00  0.000000D+00
      9  0.365524D+00  0.365516D+00  0.149291D+02  0.000000D+00
     10 -0.370903D+00 -0.370759D+00  0.519991D+01 -0.903798D+01  0.000000D+00
     11  0.660193D-01  0.660126D-01  0.729438D-02  0.824602D-02 -0.576863D-01
     12  0.105603D+00  0.103192D+00  0.553249D-01  0.298105D-01 -0.134684D+00
     13  0.776234D-01  0.970027D+00  0.265018D-01  0.136349D-01 -0.188138D+00
     14  0.970232D+00  0.802361D-01  0.264744D-01  0.135687D-01 -0.188173D+00
               11            12            13            14 
     11  0.000000D+00
     12  0.123315D+01  0.000000D+00
     13  0.115537D+01  0.112218D+01  0.000000D+00
     14  0.115514D+01  0.112208D+01  0.109215D+01  0.000000D+00
 Diamagnetic spin-orbit (DSO) contribution to K (Hz):
                1             2             3             4             5 
      1  0.000000D+00
      2  0.923372D-01  0.000000D+00
      3  0.945598D-01 -0.856190D-01  0.000000D+00
      4  0.945600D-01 -0.856147D-01 -0.844540D-01  0.000000D+00
      5 -0.334227D-01 -0.387831D-01 -0.288370D-01 -0.288340D-01  0.000000D+00
      6 -0.302031D-01 -0.320239D-01 -0.391359D-01 -0.182016D-01  0.124568D+00
      7 -0.302028D-01 -0.320634D-01 -0.181722D-01 -0.391295D-01  0.124568D+00
      8  0.123102D+00 -0.171452D-02  0.427251D-02  0.426956D-02  0.181239D-01
      9 -0.260977D-01 -0.206553D-02 -0.518537D-01 -0.519626D-01  0.144410D-01
     10  0.124420D-01 -0.507749D-01  0.105329D-01  0.106917D-01  0.123737D+00
     11 -0.238646D-01 -0.301364D-01 -0.172537D-01 -0.172265D-01  0.946369D-01
     12 -0.292669D-01 -0.292321D-01 -0.255914D-01 -0.256080D-01 -0.174076D-01
     13 -0.169286D-01 -0.261335D-01 -0.158485D-01 -0.389925D-02 -0.155032D-01
     14 -0.169004D-01 -0.261499D-01 -0.389874D-02 -0.157562D-01 -0.154961D-01
                6             7             8             9            10 
      6  0.000000D+00
      7 -0.646575D-01  0.000000D+00
      8  0.133858D-01  0.133857D-01  0.000000D+00
      9  0.247752D-01  0.247754D-01  0.118862D+00  0.000000D+00
     10 -0.986454D-02 -0.986519D-02  0.146005D+00 -0.197764D-01  0.000000D+00
     11 -0.204024D-01 -0.204024D-01 -0.278204D-01 -0.265767D-01  0.960998D-02
     12 -0.122497D-01 -0.120501D-01 -0.329221D-01 -0.227053D-01 -0.506211D-01
     13 -0.109669D-01 -0.892782D-01 -0.231971D-01 -0.276093D-01  0.979996D-02
     14 -0.892822D-01 -0.111676D-01 -0.231894D-01 -0.276313D-01  0.996246D-02
               11            12            13            14 
     11  0.000000D+00
     12  0.911342D-01  0.000000D+00
     13  0.935771D-01 -0.879651D-01  0.000000D+00
     14  0.935875D-01 -0.879577D-01 -0.851862D-01  0.000000D+00
 Diamagnetic spin-orbit (DSO) contribution to J (Hz):
                1             2             3             4             5 
      1  0.000000D+00
      2  0.724561D+00  0.000000D+00
      3  0.742001D+00 -0.267131D+01  0.000000D+00
      4  0.742003D+00 -0.267117D+01 -0.263496D+01  0.000000D+00
      5 -0.659606D-01 -0.304327D+00 -0.226281D+00 -0.226257D+00  0.000000D+00
      6 -0.237001D+00 -0.999143D+00 -0.122104D+01 -0.567888D+00  0.977471D+00
      7 -0.236998D+00 -0.100038D+01 -0.566972D+00 -0.122084D+01  0.977477D+00
      8  0.242944D+00 -0.134537D-01  0.335260D-01  0.335029D-01  0.357680D-01
      9  0.277727D-01  0.873980D-02  0.219407D+00  0.219868D+00 -0.153679D-01
     10 -0.132406D-01  0.214842D+00 -0.445678D-01 -0.452396D-01 -0.131679D+00
     11 -0.470973D-01 -0.236478D+00 -0.135388D+00 -0.135175D+00  0.186768D+00
     12 -0.229654D+00 -0.912041D+00 -0.798451D+00 -0.798967D+00 -0.136596D+00
     13 -0.132837D+00 -0.815366D+00 -0.494473D+00 -0.121657D+00 -0.121652D+00
     14 -0.132616D+00 -0.815876D+00 -0.121641D+00 -0.491592D+00 -0.121596D+00
                6             7             8             9            10 
      6  0.000000D+00
      7 -0.201731D+01  0.000000D+00
      8  0.105037D+00  0.105036D+00  0.000000D+00
      9 -0.104831D+00 -0.104832D+00 -0.126491D+00  0.000000D+00
     10  0.417396D-01  0.417423D-01 -0.155376D+00 -0.113484D-01  0.000000D+00
     11 -0.160096D+00 -0.160096D+00 -0.549043D-01  0.282824D-01 -0.102268D-01
     12 -0.382189D+00 -0.375961D+00 -0.258337D+00  0.960722D-01  0.214192D+00
     13 -0.342166D+00 -0.278548D+01 -0.182025D+00  0.116822D+00 -0.414663D-01
     14 -0.278560D+01 -0.348429D+00 -0.181965D+00  0.116915D+00 -0.421539D-01
               11            12            13            14 
     11  0.000000D+00
     12  0.715121D+00  0.000000D+00
     13  0.734291D+00 -0.274451D+01  0.000000D+00
     14  0.734372D+00 -0.274428D+01 -0.265781D+01  0.000000D+00
 Total nuclear spin-spin coupling K (Hz): 
                1             2             3             4             5 
      1  0.000000D+00
      2  0.197239D+02  0.000000D+00
      3  0.205842D+02 -0.104108D+01  0.000000D+00
      4  0.205810D+02 -0.104026D+01 -0.148207D+01  0.000000D+00
      5  0.420785D+00  0.124207D+00 -0.532783D-02 -0.595154D-02  0.000000D+00
      6 -0.853080D-01 -0.274823D-01 -0.187050D-01 -0.502920D-02  0.228915D+02
      7 -0.854408D-01 -0.274874D-01 -0.499586D-02 -0.187488D-01  0.228911D+02
      8  0.512141D+02 -0.301444D+01 -0.848109D+01 -0.846069D+01 -0.306924D+01
      9 -0.106204D+02  0.668043D+00  0.473980D+01  0.472930D+01 -0.151690D+00
     10  0.138054D+02  0.128196D+01 -0.192751D+01 -0.192323D+01 -0.128313D+02
     11  0.779412D-02  0.186415D-01  0.274624D-01  0.280813D-01  0.279301D+02
     12  0.665881D-01 -0.583091D-02 -0.133271D-01 -0.133528D-01 -0.101554D+01
     13 -0.191027D-03 -0.171581D-01 -0.135891D-01 -0.559743D-02 -0.220389D+01
     14  0.633341D-05 -0.171517D-01 -0.561211D-02 -0.135113D-01 -0.220528D+01
                6             7             8             9            10 
      6  0.000000D+00
      7 -0.763319D+00  0.000000D+00
      8  0.324625D+00  0.324840D+00  0.000000D+00
      9 -0.122473D+00 -0.121580D+00  0.498071D+02  0.000000D+00
     10  0.602324D+00  0.601603D+00 -0.721348D+02  0.215547D+02  0.000000D+00
     11 -0.137082D+01 -0.137053D+01  0.326988D+01 -0.455089D+00  0.548681D+01
     12  0.126999D+00  0.128108D+00  0.110661D+00 -0.101674D+00  0.232791D+01
     13  0.218673D+00  0.482760D+00 -0.157378D+00 -0.275082D-01  0.136145D+00
     14  0.482439D+00  0.217119D+00 -0.157242D+00 -0.275280D-01  0.141054D+00
               11            12            13            14 
     11  0.000000D+00
     12  0.188661D+02  0.000000D+00
     13  0.191752D+02 -0.966410D+00  0.000000D+00
     14  0.191759D+02 -0.966859D+00 -0.930167D+00  0.000000D+00
 Total nuclear spin-spin coupling J (Hz): 
                1             2             3             4             5 
      1  0.000000D+00
      2  0.154772D+03  0.000000D+00
      3  0.161522D+03 -0.324815D+02  0.000000D+00
      4  0.161497D+03 -0.324561D+02 -0.462406D+02  0.000000D+00
      5  0.830430D+00  0.974640D+00 -0.418070D-01 -0.467012D-01  0.000000D+00
      6 -0.669404D+00 -0.857447D+00 -0.583595D+00 -0.156911D+00  0.179628D+03
      7 -0.670446D+00 -0.857604D+00 -0.155871D+00 -0.584963D+00  0.179624D+03
      8  0.101072D+03 -0.236540D+02 -0.665503D+02 -0.663902D+02 -0.605722D+01
      9  0.113020D+02 -0.282667D+01 -0.200554D+02 -0.200110D+02  0.161426D+00
     10 -0.146914D+02 -0.542433D+01  0.815584D+01  0.813769D+01  0.136548D+02
     11  0.153819D-01  0.146278D+00  0.215495D+00  0.220351D+00  0.551207D+02
     12  0.522511D+00 -0.181924D+00 -0.415806D+00 -0.416605D+00 -0.796887D+01
     13 -0.149897D-02 -0.535333D+00 -0.423979D+00 -0.174640D+00 -0.172937D+02
     14  0.496977D-04 -0.535133D+00 -0.175098D+00 -0.421552D+00 -0.173046D+02
                6             7             8             9            10 
      6  0.000000D+00
      7 -0.238155D+02  0.000000D+00
      8  0.254730D+01  0.254899D+01  0.000000D+00
      9  0.518219D+00  0.514439D+00 -0.530038D+02  0.000000D+00
     10 -0.254860D+01 -0.254555D+01  0.767645D+02  0.123689D+02  0.000000D+00
     11 -0.107567D+02 -0.107544D+02  0.645320D+01  0.484297D+00 -0.583896D+01
     12  0.396237D+01  0.399697D+01  0.868347D+00  0.430212D+00 -0.985002D+01
     13  0.682260D+01  0.150621D+02 -0.123493D+01  0.116395D+00 -0.576068D+00
     14  0.150521D+02  0.677412D+01 -0.123386D+01  0.116479D+00 -0.596837D+00
               11            12            13            14 
     11  0.000000D+00
     12  0.148041D+03  0.000000D+00
     13  0.150466D+03 -0.301520D+02  0.000000D+00
     14  0.150472D+03 -0.301660D+02 -0.290212D+02  0.000000D+00
 End of Minotr F.D. properties file   721 does not exist.
 End of Minotr F.D. properties file   722 does not exist.
 End of Minotr F.D. properties file   788 does not exist.

 **********************************************************************

            Population analysis using the SCF density.

 **********************************************************************

 Orbital symmetries:
       Occupied  (A) (A) (A) (A) (A) (A) (A) (A) (A) (A) (A) (A)
                 (A) (A) (A) (A) (A) (A) (A) (A) (A) (A) (A) (A)
       Virtual   (A) (A) (A) (A) (A) (A) (A) (A) (A) (A) (A) (A)
                 (A) (A) (A) (A) (A) (A) (A) (A) (A) (A) (A) (A)
                 (A) (A) (A) (A) (A) (A) (A) (A) (A) (A) (A) (A)
                 (A) (A) (A) (A) (A) (A) (A) (A) (A) (A)
 The electronic state is 1-A.
 Alpha  occ. eigenvalues --  -20.48631 -20.47274 -11.35309 -11.22902 -11.18918
 Alpha  occ. eigenvalues --  -11.16027  -1.40003  -1.31131  -1.03992  -1.00975
 Alpha  occ. eigenvalues --   -0.85124  -0.75365  -0.66381  -0.65794  -0.63075
 Alpha  occ. eigenvalues --   -0.61616  -0.58415  -0.56033  -0.54385  -0.52026
 Alpha  occ. eigenvalues --   -0.49969  -0.49188  -0.44147  -0.42891
 Alpha virt. eigenvalues --    0.15586   0.26220   0.28205   0.29632   0.33227
 Alpha virt. eigenvalues --    0.33376   0.34536   0.34907   0.35823   0.37743
 Alpha virt. eigenvalues --    0.37785   0.42056   0.45317   0.58210   0.90113
 Alpha virt. eigenvalues --    0.91646   0.93534   0.94440   0.97726   0.99124
 Alpha virt. eigenvalues --    1.01315   1.02815   1.04045   1.08711   1.13974
 Alpha virt. eigenvalues --    1.23805   1.27685   1.33263   1.34923   1.35492
 Alpha virt. eigenvalues --    1.37134   1.38003   1.43390   1.47210   1.63228
 Alpha virt. eigenvalues --    1.85166   1.90698   1.94191   1.98245   2.00915
 Alpha virt. eigenvalues --    2.06052   2.19675   2.29798   2.35839   3.40064
 Alpha virt. eigenvalues --    3.51848
          Condensed to atoms (all electrons):
               1          2          3          4          5          6
     1  C    5.523057   0.356806   0.359944   0.359875   0.002796   0.000040
     2  H    0.356806   0.467265  -0.019432  -0.019445  -0.000080   0.000002
     3  H    0.359944  -0.019432   0.448344  -0.017311  -0.000061   0.000004
     4  H    0.359875  -0.019445  -0.017311   0.448399  -0.000062  -0.000013
     5  C    0.002796  -0.000080  -0.000061  -0.000062   5.140215   0.362752
     6  H    0.000040   0.000002   0.000004  -0.000013   0.362752   0.524390
     7  H    0.000039   0.000002  -0.000012   0.000004   0.362764  -0.037777
     8  C    0.206363  -0.043109  -0.035212  -0.035199  -0.055075  -0.004291
     9  O   -0.067630   0.002597   0.000901   0.000906   0.002130   0.002734
    10  O   -0.051722   0.001291   0.001927   0.001943   0.203397  -0.026638
    11  C   -0.000005   0.000000  -0.000002  -0.000002   0.241136  -0.047277
    12  H    0.000001  -0.000000  -0.000000  -0.000000  -0.044993   0.000307
    13  H   -0.000002   0.000000   0.000000   0.000000  -0.042852  -0.003255
    14  H   -0.000002   0.000000   0.000000   0.000000  -0.042840   0.003469
               7          8          9         10         11         12
     1  C    0.000039   0.206363  -0.067630  -0.051722  -0.000005   0.000001
     2  H    0.000002  -0.043109   0.002597   0.001291   0.000000  -0.000000
     3  H   -0.000012  -0.035212   0.000901   0.001927  -0.000002  -0.000000
     4  H    0.000004  -0.035199   0.000906   0.001943  -0.000002  -0.000000
     5  C    0.362764  -0.055075   0.002130   0.203397   0.241136  -0.044993
     6  H   -0.037777  -0.004291   0.002734  -0.026638  -0.047277   0.000307
     7  H    0.524388  -0.004290   0.002734  -0.026636  -0.047286   0.000293
     8  C   -0.004290   4.535309   0.464750   0.219049   0.003133  -0.000062
     9  O    0.002734   0.464750   8.201860  -0.029274   0.000100   0.000002
    10  O   -0.026636   0.219049  -0.029274   8.331025  -0.025048   0.001080
    11  C   -0.047286   0.003133   0.000100  -0.025048   5.391889   0.367417
    12  H    0.000293  -0.000062   0.000002   0.001080   0.367417   0.512900
    13  H    0.003468  -0.000065  -0.000001   0.001113   0.374377  -0.023574
    14  H   -0.003234  -0.000065  -0.000001   0.001117   0.374328  -0.023554
              13         14
     1  C   -0.000002  -0.000002
     2  H    0.000000   0.000000
     3  H    0.000000   0.000000
     4  H    0.000000   0.000000
     5  C   -0.042852  -0.042840
     6  H   -0.003255   0.003469
     7  H    0.003468  -0.003234
     8  C   -0.000065  -0.000065
     9  O   -0.000001  -0.000001
    10  O    0.001113   0.001117
    11  C    0.374377   0.374328
    12  H   -0.023574  -0.023554
    13  H    0.490046  -0.024224
    14  H   -0.024224   0.489949
 Mulliken charges:
               1
     1  C   -0.689559
     2  H    0.254102
     3  H    0.260910
     4  H    0.260904
     5  C   -0.129229
     6  H    0.225552
     7  H    0.225543
     8  C    0.748764
     9  O   -0.581810
    10  O   -0.602624
    11  C   -0.632760
    12  H    0.210183
    13  H    0.224967
    14  H    0.225056
 Sum of Mulliken charges =  -0.00000
 Mulliken charges with hydrogens summed into heavy atoms:
               1
     1  C    0.086357
     5  C    0.321867
     8  C    0.748764
     9  O   -0.581810
    10  O   -0.602624
    11  C    0.027446
 Electronic spatial extent (au):  <R**2>=            785.2314
 Charge=             -0.0000 electrons
 Dipole moment (field-independent basis, Debye):
    X=             -0.3716    Y=             -1.3802    Z=              0.0004  Tot=              1.4294
 Quadrupole moment (field-independent basis, Debye-Ang):
   XX=            -30.7977   YY=            -41.7500   ZZ=            -35.8506
   XY=             -6.2784   XZ=              0.0004   YZ=             -0.0006
 Traceless Quadrupole moment (field-independent basis, Debye-Ang):
   XX=              5.3351   YY=             -5.6173   ZZ=              0.2822
   XY=             -6.2784   XZ=              0.0004   YZ=             -0.0006
 Octapole moment (field-independent basis, Debye-Ang**2):
  XXX=              6.6943  YYY=             -4.5898  ZZZ=              0.0013  XYY=             -3.5828
  XXY=             -5.5306  XXZ=              0.0021  XZZ=              1.7515  YZZ=              0.1802
  YYZ=              0.0009  XYZ=             -0.0036
 Hexadecapole moment (field-independent basis, Debye-Ang**3):
 XXXX=           -762.1859 YYYY=           -185.9265 ZZZZ=            -49.0675 XXXY=            -10.8954
 XXXZ=             -0.0216 YYYX=             -7.9337 YYYZ=              0.0031 ZZZX=              0.0234
 ZZZY=             -0.0041 XXYY=           -164.1714 XXZZ=           -139.4684 YYZZ=            -33.6816
 XXYZ=             -0.0043 YYXZ=             -0.0082 ZZXY=              0.7242
 N-N= 2.328414879617D+02 E-N=-1.178928035946D+03  KE= 3.027627719023D+02

 Test job not archived.
 1\1\ WCSS.PL-BEM-WN1531\SP\RHF\Gen\C4H8O2\ROOT\28-Feb-2019\0\\#N Geom=
 AllCheck Guess=TCheck SCRF=Check GenChk RHF/ChkBas NMR=ReadFC IOp(3/6=
 22)\\AcOEt\\0,1\C,0,-0.519906,-1.75006828,-0.00000358\H,0,-0.16325208,
 -2.75887656,0.00195517\H,0,-0.1632355,-1.24736756,-0.87463386\H,0,-0.1
 6323088,-1.24397389,0.8726655\C,0,-4.11322172,-0.29809818,0.\H,0,-4.46
 989428,-0.80249527,0.87365225\H,0,-4.46989479,-0.80249811,-0.8736504\C
 ,0,-2.059906,-1.75004931,0.\O,0,-2.78340063,-2.77967356,-0.00000488\O,
 0,-2.57322172,-0.29811715,0.\C,0,-4.6265367,1.15383423,-0.00000272\H,0
 ,-5.69653491,1.15384668,-0.00196009\H,0,-4.27146302,1.65767033,0.87462
 398\H,0,-4.26826721,1.65879499,-0.8726754\\Version=ES64L-G09RevE.01\St
 ate=1-A\HF=-304.1368431\RMSD=2.072e-09\Dipole=0.2488081,0.5043218,-0.0
 001544\Quadrupole=5.0450729,-5.2548529,0.2097801,-3.4413392,-0.0005062
 ,-0.0001338\PG=C01 [X(C4H8O2)]\\@


 IT PROBABLY IS NOT POSSIBLE FOR A SCIENTIST TO INTERROGATE NATURE 
 FROM A WHOLLY DISINTERESTED VIEWPOINT.
 EVEN IF HE HAS NO PARTICULAR AXE TO GRIND, HE IS LIKELY TO HAVE 
 A DISTINCTIVE WAY OF VIEWING NATURE.

                                                   -- JOHN LOSEE
 Job cpu time:       0 days  0 hours  0 minutes  6.6 seconds.
 File lengths (MBytes):  RWF=     28 Int=      0 D2E=      0 Chk=      3 Scr=      1
 Normal termination of Gaussian 09 at Thu Feb 28 08:05:27 2019.
