 Entering Gaussian System, Link 0=/usr/local/gaussian/2009-E.01/g09/g09
 Initial command:
 /usr/local/gaussian/2009-E.01/g09/l1.exe "/scratch/pbs.8340501.achilles/Gau-28038.inp" -scrdir="/scratch/pbs.8340501.achilles/"
 Entering Link 1 = /usr/local/gaussian/2009-E.01/g09/l1.exe PID=     28039.
  
 Copyright (c) 1988,1990,1992,1993,1995,1998,2003,2009,2015,
            Gaussian, Inc.  All Rights Reserved.
  
 This is part of the Gaussian(R) 09 program.  It is based on
 the Gaussian(R) 03 system (copyright 2003, Gaussian, Inc.),
 the Gaussian(R) 98 system (copyright 1998, Gaussian, Inc.),
 the Gaussian(R) 94 system (copyright 1995, Gaussian, Inc.),
 the Gaussian 92(TM) system (copyright 1992, Gaussian, Inc.),
 the Gaussian 90(TM) system (copyright 1990, Gaussian, Inc.),
 the Gaussian 88(TM) system (copyright 1988, Gaussian, Inc.),
 the Gaussian 86(TM) system (copyright 1986, Carnegie Mellon
 University), and the Gaussian 82(TM) system (copyright 1983,
 Carnegie Mellon University). Gaussian is a federally registered
 trademark of Gaussian, Inc.
  
 This software contains proprietary and confidential information,
 including trade secrets, belonging to Gaussian, Inc.
  
 This software is provided under written license and may be
 used, copied, transmitted, or stored only in accord with that
 written license.
  
 The following legend is applicable only to US Government
 contracts under FAR:
  
                    RESTRICTED RIGHTS LEGEND
  
 Use, reproduction and disclosure by the US Government is
 subject to restrictions as set forth in subparagraphs (a)
 and (c) of the Commercial Computer Software - Restricted
 Rights clause in FAR 52.227-19.
  
 Gaussian, Inc.
 340 Quinnipiac St., Bldg. 40, Wallingford CT 06492
  
  
 ---------------------------------------------------------------
 Warning -- This program may not be used in any manner that
 competes with the business of Gaussian, Inc. or will provide
 assistance to any competitor of Gaussian, Inc.  The licensee
 of this program is prohibited from giving any competitor of
 Gaussian, Inc. access to this program.  By using this program,
 the user acknowledges that Gaussian, Inc. is engaged in the
 business of creating and licensing software in the field of
 computational chemistry and represents and warrants to the
 licensee that it is not a competitor of Gaussian, Inc. and that
 it will not use this program in any manner prohibited above.
 ---------------------------------------------------------------
  

 Cite this work as:
 Gaussian 09, Revision E.01,
 M. J. Frisch, G. W. Trucks, H. B. Schlegel, G. E. Scuseria, 
 M. A. Robb, J. R. Cheeseman, G. Scalmani, V. Barone, B. Mennucci, 
 G. A. Petersson, H. Nakatsuji, M. Caricato, X. Li, H. P. Hratchian, 
 A. F. Izmaylov, J. Bloino, G. Zheng, J. L. Sonnenberg, M. Hada, 
 M. Ehara, K. Toyota, R. Fukuda, J. Hasegawa, M. Ishida, T. Nakajima, 
 Y. Honda, O. Kitao, H. Nakai, T. Vreven, J. A. Montgomery, Jr., 
 J. E. Peralta, F. Ogliaro, M. Bearpark, J. J. Heyd, E. Brothers, 
 K. N. Kudin, V. N. Staroverov, T. Keith, R. Kobayashi, J. Normand, 
 K. Raghavachari, A. Rendell, J. C. Burant, S. S. Iyengar, J. Tomasi, 
 M. Cossi, N. Rega, J. M. Millam, M. Klene, J. E. Knox, J. B. Cross, 
 V. Bakken, C. Adamo, J. Jaramillo, R. Gomperts, R. E. Stratmann, 
 O. Yazyev, A. J. Austin, R. Cammi, C. Pomelli, J. W. Ochterski, 
 R. L. Martin, K. Morokuma, V. G. Zakrzewski, G. A. Voth, 
 P. Salvador, J. J. Dannenberg, S. Dapprich, A. D. Daniels, 
 O. Farkas, J. B. Foresman, J. V. Ortiz, J. Cioslowski, 
 and D. J. Fox, Gaussian, Inc., Wallingford CT, 2013.
 
 ******************************************
 Gaussian 09:  ES64L-G09RevE.01 30-Nov-2015
                 7-Mar-2019 
 ******************************************
 Default route:  MAXDISK=1700GB
 ------------------------
 # opt=cartesian hf/3-21g
 ------------------------
 1/10=7,18=10,38=1/1,3;
 2/12=2,17=6,18=5,29=2,40=1/2;
 3/5=5,11=9,16=1,25=1,30=1,71=1/1,2,3;
 4//1;
 5/5=2,38=5/2;
 6/7=2,8=2,9=2,10=2,28=1/1;
 7/7=1,29=1/1,2,3,16;
 1/10=7,18=10/3(2);
 2/29=1/2;
 99/12=1/99;
 2/29=1/2;
 3/5=5,11=9,16=1,25=1,30=1,71=1/1,2,3;
 4/5=5,16=3,69=1/1;
 5/5=2,38=5/2;
 7/7=1/1,2,3,16;
 1/18=10/3(-5);
 2/29=1/2;
 6/7=2,8=2,9=2,10=2,19=2,28=1/1;
 99/9=1,12=1/99;
 ------------
 Formaldehyde
 ------------
 Symbolic Z-matrix:
 Charge =  0 Multiplicity = 1
 C                    -0.49738   0.72775   0. 
 H                     0.03578  -0.19996   0. 
 H                    -1.56738   0.72775   0. 
 O                     0.12966   1.8188    0. 
 

 GradGradGradGradGradGradGradGradGradGradGradGradGradGradGradGradGradGrad
 Berny optimization.
 Initialization pass.
 No Z-matrix variables, so optimization will use Cartesian coordinates.
 Trust Radius=3.00D-01 FncErr=1.00D-07 GrdErr=1.00D-07
 Number of steps in this run=     22 maximum allowed number of steps=    100.
 GradGradGradGradGradGradGradGradGradGradGradGradGradGradGradGradGradGrad

 ---------------------------------------------------------------------------------------------------
                            Z-MATRIX (ANGSTROMS AND DEGREES)
   CD    Cent   Atom    N1       Length/X        N2       Alpha/Y        N3        Beta/Z          J
 ---------------------------------------------------------------------------------------------------
      1      1  C        0  -0.497382          0.727749          0.000000
      2      2  H        0   0.035782         -0.199956          0.000000
      3      3  H        0  -1.567382          0.727749          0.000000
      4      4  O        0   0.129658          1.818799          0.000000
 ---------------------------------------------------------------------------------------------------
                         Z-Matrix orientation:                         
 ---------------------------------------------------------------------
 Center     Atomic      Atomic             Coordinates (Angstroms)
 Number     Number       Type             X           Y           Z
 ---------------------------------------------------------------------
      1          6           0       -0.497382    0.727749    0.000000
      2          1           0        0.035782   -0.199956    0.000000
      3          1           0       -1.567382    0.727749    0.000000
      4          8           0        0.129658    1.818799    0.000000
 ---------------------------------------------------------------------
                    Distance matrix (angstroms):
                    1          2          3          4
     1  C    0.000000
     2  H    1.070000   0.000000
     3  H    1.070000   1.852234   0.000000
     4  O    1.258400   2.020937   2.017508   0.000000
 Stoichiometry    CH2O
 Framework group  CS[SG(CH2O)]
 Deg. of freedom     5
 Full point group                 CS      NOp   2
 Largest Abelian subgroup         CS      NOp   2
 Largest concise Abelian subgroup C1      NOp   1
                         Standard orientation:                         
 ---------------------------------------------------------------------
 Center     Atomic      Atomic             Coordinates (Angstroms)
 Number     Number       Type             X           Y           Z
 ---------------------------------------------------------------------
      1          6           0        0.000199    0.562211    0.000000
      2          1           0        0.924720    1.100877    0.000000
      3          1           0       -0.927506    1.095374    0.000000
      4          8           0        0.000199   -0.696189   -0.000000
 ---------------------------------------------------------------------
 Rotational constants (GHZ):    292.3297840     36.5731199     32.5062871
 Standard basis: 3-21G (6D, 7F)
 There are    18 symmetry adapted cartesian basis functions of A'  symmetry.
 There are     4 symmetry adapted cartesian basis functions of A"  symmetry.
 There are    18 symmetry adapted basis functions of A'  symmetry.
 There are     4 symmetry adapted basis functions of A"  symmetry.
    22 basis functions,    36 primitive gaussians,    22 cartesian basis functions
     8 alpha electrons        8 beta electrons
       nuclear repulsion energy        30.5982777181 Hartrees.
 NAtoms=    4 NActive=    4 NUniq=    4 SFac= 1.00D+00 NAtFMM=   60 NAOKFM=F Big=F
 Integral buffers will be    131072 words long.
 Raffenetti 1 integral format.
 Two-electron integral symmetry is turned on.
 One-electron integrals computed using PRISM.
 NBasis=    22 RedAO= T EigKep=  6.11D-02  NBF=    18     4
 NBsUse=    22 1.00D-06 EigRej= -1.00D+00 NBFU=    18     4
 ExpMin= 1.83D-01 ExpMax= 3.22D+02 ExpMxC= 3.22D+02 IAcc=1 IRadAn=         1 AccDes= 0.00D+00
 Harris functional with IExCor=  205 and IRadAn=       1 diagonalized for initial guess.
 HarFok:  IExCor=  205 AccDes= 0.00D+00 IRadAn=         1 IDoV= 1 UseB2=F ITyADJ=14
 ICtDFT=  3500011 ScaDFX=  1.000000  1.000000  1.000000  1.000000
 FoFCou: FMM=F IPFlag=           0 FMFlag=      100000 FMFlg1=           0
         NFxFlg=           0 DoJE=T BraDBF=F KetDBF=T FulRan=T
         wScrn=  0.000000 ICntrl=     500 IOpCl=  0 I1Cent=   200000004 NGrid=           0
         NMat0=    1 NMatS0=      1 NMatT0=    0 NMatD0=    1 NMtDS0=    0 NMtDT0=    0
 Petite list used in FoFCou.
 Initial guess orbital symmetries:
       Occupied  (A') (A') (A') (A') (A') (A') (A") (A')
       Virtual   (A") (A') (A') (A') (A") (A') (A') (A') (A') (A')
                 (A") (A') (A') (A')
 The electronic state of the initial guess is 1-A'.
 Keep R1 ints in memory in symmetry-blocked form, NReq=857309.
 Requested convergence on RMS density matrix=1.00D-08 within 128 cycles.
 Requested convergence on MAX density matrix=1.00D-06.
 Requested convergence on             energy=1.00D-06.
 No special actions if energy rises.
 SCF Done:  E(RHF) =  -113.217409254     A.U. after   11 cycles
            NFock= 11  Conv=0.24D-08     -V/T= 2.0040

 **********************************************************************

            Population analysis using the SCF density.

 **********************************************************************

 Orbital symmetries:
       Occupied  (A') (A') (A') (A') (A') (A') (A") (A')
       Virtual   (A") (A') (A') (A') (A") (A') (A') (A') (A') (A')
                 (A") (A') (A') (A')
 The electronic state is 1-A'.
 Alpha  occ. eigenvalues --  -20.48231 -11.28166  -1.38160  -0.87703  -0.69750
 Alpha  occ. eigenvalues --   -0.61810  -0.50309  -0.44070
 Alpha virt. eigenvalues --    0.13309   0.27827   0.36642   0.44280   0.93771
 Alpha virt. eigenvalues --    0.98973   1.01588   1.12899   1.30065   1.58116
 Alpha virt. eigenvalues --    1.86710   1.93210   1.97891   3.28240
          Condensed to atoms (all electrons):
               1          2          3          4
     1  C    4.769258   0.334016   0.334848   0.468009
     2  H    0.334016   0.584993  -0.062097  -0.050362
     3  H    0.334848  -0.062097   0.584795  -0.050825
     4  O    0.468009  -0.050362  -0.050825   8.113777
 Mulliken charges:
               1
     1  C    0.093868
     2  H    0.193451
     3  H    0.193280
     4  O   -0.480599
 Sum of Mulliken charges =  -0.00000
 Mulliken charges with hydrogens summed into heavy atoms:
               1
     1  C    0.480599
     4  O   -0.480599
 Electronic spatial extent (au):  <R**2>=             61.4444
 Charge=             -0.0000 electrons
 Dipole moment (field-independent basis, Debye):
    X=              0.0004    Y=              2.8390    Z=              0.0000  Tot=              2.8390
 Quadrupole moment (field-independent basis, Debye-Ang):
   XX=            -11.2753   YY=            -12.1593   ZZ=            -11.6535
   XY=              0.0047   XZ=             -0.0000   YZ=             -0.0000
 Traceless Quadrupole moment (field-independent basis, Debye-Ang):
   XX=              0.4207   YY=             -0.4633   ZZ=              0.0425
   XY=              0.0047   XZ=             -0.0000   YZ=             -0.0000
 Octapole moment (field-independent basis, Debye-Ang**2):
  XXX=             -0.0043  YYY=             -0.3111  ZZZ=             -0.0000  XYY=              0.0078
  XXY=              0.3273  XXZ=              0.0000  XZZ=              0.0007  YZZ=             -1.0631
  YYZ=              0.0000  XYZ=             -0.0000
 Hexadecapole moment (field-independent basis, Debye-Ang**3):
 XXXX=            -15.8676 YYYY=            -44.1014 ZZZZ=             -9.3060 XXXY=             -0.0039
 XXXZ=              0.0000 YYYX=              0.0128 YYYZ=             -0.0000 ZZZX=              0.0000
 ZZZY=             -0.0000 XXYY=             -9.2986 XXZZ=             -4.4519 YYZZ=             -8.9431
 XXYZ=             -0.0000 YYXZ=             -0.0000 ZZXY=             -0.0007
 N-N= 3.059827771806D+01 E-N=-3.278387562987D+02  KE= 1.127713537847D+02
 Symmetry A'   KE= 1.094707917202D+02
 Symmetry A"   KE= 3.300562064505D+00
 Calling FoFJK, ICntrl=      2127 FMM=F ISym2X=1 I1Cent= 0 IOpClX= 0 NMat=1 NMatS=1 NMatT=0.
 ***** Axes restored to original set *****
 -------------------------------------------------------------------
 Center     Atomic                   Forces (Hartrees/Bohr)
 Number     Number              X              Y              Z
 -------------------------------------------------------------------
      1        6           0.043652298    0.077333575    0.000000000
      2        1          -0.002080466   -0.007730651   -0.000000000
      3        1          -0.005776435   -0.006270344   -0.000000000
      4        8          -0.035795398   -0.063332579   -0.000000000
 -------------------------------------------------------------------
 Cartesian Forces:  Max     0.077333575 RMS     0.033310542

 GradGradGradGradGradGradGradGradGradGradGradGradGradGradGradGradGradGrad
 Berny optimization.
 Search for a local minimum.
 Step number   1 out of a maximum of   22
 All quantities printed in internal units (Hartrees-Bohrs-Radians)
 Second derivative matrix not updated -- first step.
 The second derivative matrix:
                          X1        Y1        Z1        X2        Y2
           X1           0.81529
           Y1           0.20012   1.05019
           Z1           0.00000   0.00000   0.08942
           X2          -0.17629   0.10747   0.00000   0.15127
           Y2           0.11265  -0.31053  -0.00000  -0.12703   0.29930
           Z2           0.00000  -0.00000  -0.03137  -0.00000   0.00000
           X3          -0.37230  -0.00000  -0.00000   0.00000  -0.00000
           Y3          -0.00508  -0.11435  -0.00000   0.03393   0.01950
           Z3          -0.00000  -0.00000  -0.03137   0.00000   0.00000
           X4          -0.26670  -0.30760  -0.00000   0.02501   0.01438
           Y4          -0.30770  -0.62531  -0.00000  -0.01438  -0.00826
           Z4          -0.00000  -0.00000  -0.02667  -0.00000  -0.00000
                          Z2        X3        Y3        Z3        X4
           Z2           0.01101
           X3          -0.00000   0.37230
           Y3           0.00000   0.00000   0.07827
           Z3           0.01101   0.00000   0.00000   0.01101
           X4           0.00000   0.00000  -0.02885  -0.00000   0.24168
           Y4          -0.00000   0.00000   0.01658   0.00000   0.32207
           Z4           0.00936  -0.00000  -0.00000   0.00936   0.00000
                          Y4        Z4
           Y4           0.61699
           Z4           0.00000   0.00796
 ITU=  0
     Eigenvalues ---    0.09925   0.11976   0.15626   0.40315   0.89981
     Eigenvalues ---    1.84234
 RFO step:  Lambda=-7.35150265D-03 EMin= 9.92471681D-02
 ClnCor:  largest displacement from symmetrization is 2.72D-17 for atom     1.
 Linear search not attempted -- first point.
 ClnCor:  largest displacement from symmetrization is 1.49D-15 for atom     3.
 B after Tr=    -0.001228   -0.001422    0.000000
         Rot=    1.000000    0.000000    0.000000    0.000293 Ang=   0.03 deg.
 Variable       Old X    -DE/DX   Delta X   Delta X   Delta X     New X
                                 (Linear)    (Quad)   (Total)
    X1       -0.93992   0.04365   0.00000   0.02278   0.02238  -0.91753
    Y1        1.37525   0.07733   0.00000   0.04365   0.04277   1.41801
    Z1       -0.00000   0.00000   0.00000   0.00000   0.00000  -0.00000
    X2        0.06762  -0.00208   0.00000  -0.00952  -0.01097   0.05665
    Y2       -0.37786  -0.00773   0.00000   0.00728   0.00583  -0.37203
    Z2       -0.00000  -0.00000   0.00000   0.00000   0.00000  -0.00000
    X3       -2.96192  -0.00578   0.00000   0.00713   0.00670  -2.95522
    Y3        1.37525  -0.00627   0.00000  -0.01078  -0.01047   1.36477
    Z3       -0.00000  -0.00000   0.00000  -0.00000  -0.00000  -0.00000
    X4        0.24502  -0.03580   0.00000  -0.01888  -0.01812   0.22690
    Y4        3.43703  -0.06333   0.00000  -0.03657  -0.03812   3.39891
    Z4        0.00000  -0.00000   0.00000  -0.00000   0.00000   0.00000
         Item               Value     Threshold  Converged?
 Maximum Force            0.077334     0.000450     NO 
 RMS     Force            0.033311     0.000300     NO 
 Maximum Displacement     0.042766     0.001800     NO 
 RMS     Displacement     0.019192     0.001200     NO 
 Predicted change in Energy=-3.692029D-03
 GradGradGradGradGradGradGradGradGradGradGradGradGradGradGradGradGradGrad

                          Input orientation:                          
 ---------------------------------------------------------------------
 Center     Atomic      Atomic             Coordinates (Angstroms)
 Number     Number       Type             X           Y           Z
 ---------------------------------------------------------------------
      1          6           0       -0.485538    0.750379   -0.000000
      2          1           0        0.029977   -0.196872   -0.000000
      3          1           0       -1.563835    0.722206   -0.000000
      4          8           0        0.120072    1.798627    0.000000
 ---------------------------------------------------------------------
                    Distance matrix (angstroms):
                    1          2          3          4
     1  C    0.000000
     2  H    1.078444   0.000000
     3  H    1.078665   1.839821   0.000000
     4  O    1.210614   1.997532   1.998556   0.000000
 Stoichiometry    CH2O
 Framework group  CS[SG(CH2O)]
 Deg. of freedom     5
 Full point group                 CS      NOp   2
 Largest Abelian subgroup         CS      NOp   2
 Largest concise Abelian subgroup C1      NOp   1
                         Standard orientation:                         
 ---------------------------------------------------------------------
 Center     Atomic      Atomic             Coordinates (Angstroms)
 Number     Number       Type             X           Y           Z
 ---------------------------------------------------------------------
      1          6           0       -0.000041    0.534924    0.000000
      2          1           0        0.920197    1.097244    0.000000
      3          1           0       -0.919624    1.098737    0.000000
      4          8           0       -0.000041   -0.675690    0.000000
 ---------------------------------------------------------------------
 Rotational constants (GHZ):    296.2858798     38.8494102     34.3459254
 Standard basis: 3-21G (6D, 7F)
 There are    18 symmetry adapted cartesian basis functions of A'  symmetry.
 There are     4 symmetry adapted cartesian basis functions of A"  symmetry.
 There are    18 symmetry adapted basis functions of A'  symmetry.
 There are     4 symmetry adapted basis functions of A"  symmetry.
    22 basis functions,    36 primitive gaussians,    22 cartesian basis functions
     8 alpha electrons        8 beta electrons
       nuclear repulsion energy        31.3943216350 Hartrees.
 NAtoms=    4 NActive=    4 NUniq=    4 SFac= 1.00D+00 NAtFMM=   60 NAOKFM=F Big=F
 Integral buffers will be    131072 words long.
 Raffenetti 1 integral format.
 Two-electron integral symmetry is turned on.
 One-electron integrals computed using PRISM.
 NBasis=    22 RedAO= T EigKep=  5.94D-02  NBF=    18     4
 NBsUse=    22 1.00D-06 EigRej= -1.00D+00 NBFU=    18     4
 Initial guess from the checkpoint file:  "/scratch/pbs.8340501.achilles/Gau-28039.chk"
 B after Tr=    -0.000000   -0.000000   -0.000000
         Rot=    1.000000   -0.000000    0.000000    0.000550 Ang=   0.06 deg.
 Initial guess orbital symmetries:
       Occupied  (A') (A') (A') (A') (A') (A') (A") (A')
       Virtual   (A') (A') (A') (A') (A') (A') (A') (A') (A') (A')
                 (A') (A") (A") (A")
 ExpMin= 1.83D-01 ExpMax= 3.22D+02 ExpMxC= 3.22D+02 IAcc=1 IRadAn=         1 AccDes= 0.00D+00
 Harris functional with IExCor=  205 and IRadAn=       1 diagonalized for initial guess.
 HarFok:  IExCor=  205 AccDes= 0.00D+00 IRadAn=         1 IDoV= 1 UseB2=F ITyADJ=14
 ICtDFT=  3500011 ScaDFX=  1.000000  1.000000  1.000000  1.000000
 FoFCou: FMM=F IPFlag=           0 FMFlag=      100000 FMFlg1=           0
         NFxFlg=           0 DoJE=T BraDBF=F KetDBF=T FulRan=T
         wScrn=  0.000000 ICntrl=     500 IOpCl=  0 I1Cent=   200000004 NGrid=           0
         NMat0=    1 NMatS0=      1 NMatT0=    0 NMatD0=    1 NMtDS0=    0 NMtDT0=    0
 Petite list used in FoFCou.
 Keep R1 ints in memory in symmetry-blocked form, NReq=857309.
 Requested convergence on RMS density matrix=1.00D-08 within 128 cycles.
 Requested convergence on MAX density matrix=1.00D-06.
 Requested convergence on             energy=1.00D-06.
 No special actions if energy rises.
 SCF Done:  E(RHF) =  -113.221642853     A.U. after   11 cycles
            NFock= 11  Conv=0.46D-08     -V/T= 2.0026
 Calling FoFJK, ICntrl=      2127 FMM=F ISym2X=1 I1Cent= 0 IOpClX= 0 NMat=1 NMatS=1 NMatT=0.
 ***** Axes restored to original set *****
 -------------------------------------------------------------------
 Center     Atomic                   Forces (Hartrees/Bohr)
 Number     Number              X              Y              Z
 -------------------------------------------------------------------
      1        6           0.006422068    0.010982671   -0.000000000
      2        1          -0.002093834   -0.004165293   -0.000000000
      3        1          -0.002373012   -0.003727419    0.000000000
      4        8          -0.001955223   -0.003089959    0.000000000
 -------------------------------------------------------------------
 Cartesian Forces:  Max     0.010982671 RMS     0.004247464

 GradGradGradGradGradGradGradGradGradGradGradGradGradGradGradGradGradGrad
 Berny optimization.
 Search for a local minimum.
 Step number   2 out of a maximum of   22
 All quantities printed in internal units (Hartrees-Bohrs-Radians)
 Update second derivatives using D2CorN and points    1    2
 DE= -4.23D-03 DEPred=-3.69D-03 R= 1.15D+00
 TightC=F SS=  1.41D+00  RLast= 6.65D-02 DXNew= 5.0454D-01 1.9945D-01
 Trust test= 1.15D+00 RLast= 6.65D-02 DXMaxT set to 3.00D-01
 The second derivative matrix:
                          X1        Y1        Z1        X2        Y2
           X1           0.78346
           Y1           0.14273   0.94707
           Z1          -0.00000  -0.00000   0.08942
           X2          -0.16337   0.13049   0.00000   0.14625
           Y2           0.11916  -0.29722   0.00000  -0.13091   0.30484
           Z2          -0.00000  -0.00000  -0.03137   0.00000   0.00000
           X3          -0.37090   0.00369   0.00000  -0.00149   0.00479
           Y3           0.01160  -0.08407   0.00000   0.02701   0.01692
           Z3          -0.00000  -0.00000  -0.03137   0.00000   0.00000
           X4          -0.24919  -0.27691  -0.00000   0.01860   0.00696
           Y4          -0.27349  -0.56578  -0.00000  -0.02658  -0.02455
           Z4           0.00000   0.00000  -0.02667  -0.00000  -0.00000
                          Z2        X3        Y3        Z3        X4
           Z2           0.01101
           X3           0.00000   0.37599
           Y3           0.00000  -0.00012   0.06962
           Z3           0.01101   0.00000   0.00000   0.01101
           X4           0.00000  -0.00360  -0.03849   0.00000   0.23419
           Y4           0.00000  -0.00837  -0.00248   0.00000   0.30844
           Z4           0.00936  -0.00000  -0.00000   0.00936   0.00000
                          Y4        Z4
           Y4           0.59280
           Z4           0.00000   0.00796
 ITU=  1  0
     Eigenvalues ---    0.10066   0.12045   0.14196   0.41972   0.90677
     Eigenvalues ---    1.66788
 RFO step:  Lambda=-2.60225513D-04 EMin= 1.00661447D-01
 ClnCor:  largest displacement from symmetrization is 8.41D-18 for atom     2.
 Quartic linear search produced a step of  0.10270.
 ClnCor:  largest displacement from symmetrization is 6.29D-16 for atom     3.
 B after Tr=     0.003993    0.006669    0.000000
         Rot=    1.000000   -0.000000    0.000000   -0.000128 Ang=  -0.01 deg.
 Variable       Old X    -DE/DX   Delta X   Delta X   Delta X     New X
                                 (Linear)    (Quad)   (Total)
    X1       -0.91753   0.00642   0.00230   0.00410   0.01003  -0.90750
    Y1        1.41801   0.01098   0.00439   0.00546   0.01629   1.43430
    Z1        0.00000  -0.00000   0.00000  -0.00000  -0.00000   0.00000
    X2        0.05665  -0.00209  -0.00113  -0.02179  -0.01883   0.03782
    Y2       -0.37203  -0.00417   0.00060  -0.01653  -0.00926  -0.38129
    Z2        0.00000  -0.00000   0.00000   0.00000   0.00000   0.00000
    X3       -2.95522  -0.00237   0.00069  -0.00147   0.00286  -2.95236
    Y3        1.36477  -0.00373  -0.00108  -0.02443  -0.01960   1.34517
    Z3        0.00000   0.00000   0.00000   0.00000  -0.00000  -0.00000
    X4        0.22690  -0.00196  -0.00186   0.00467   0.00593   0.23284
    Y4        3.39891  -0.00309  -0.00391   0.00976   0.01257   3.41148
    Z4        0.00000   0.00000  -0.00000   0.00000   0.00000   0.00000
         Item               Value     Threshold  Converged?
 Maximum Force            0.010983     0.000450     NO 
 RMS     Force            0.004247     0.000300     NO 
 Maximum Displacement     0.019598     0.001800     NO 
 RMS     Displacement     0.010768     0.001200     NO 
 Predicted change in Energy=-1.725432D-04
 GradGradGradGradGradGradGradGradGradGradGradGradGradGradGradGradGradGrad

                          Input orientation:                          
 ---------------------------------------------------------------------
 Center     Atomic      Atomic             Coordinates (Angstroms)
 Number     Number       Type             X           Y           Z
 ---------------------------------------------------------------------
      1          6           0       -0.480231    0.758997    0.000000
      2          1           0        0.020014   -0.201772    0.000000
      3          1           0       -1.562319    0.711835   -0.000000
      4          8           0        0.123212    1.805279    0.000000
 ---------------------------------------------------------------------
                    Distance matrix (angstroms):
                    1          2          3          4
     1  C    0.000000
     2  H    1.083200   0.000000
     3  H    1.083116   1.827144   0.000000
     4  O    1.207828   2.009702   2.009137   0.000000
 Stoichiometry    CH2O
 Framework group  CS[SG(CH2O)]
 Deg. of freedom     5
 Full point group                 CS      NOp   2
 Largest Abelian subgroup         CS      NOp   2
 Largest concise Abelian subgroup C1      NOp   1
                         Standard orientation:                         
 ---------------------------------------------------------------------
 Center     Atomic      Atomic             Coordinates (Angstroms)
 Number     Number       Type             X           Y           Z
 ---------------------------------------------------------------------
      1          6           0        0.000028    0.531175    0.000000
      2          1           0        0.913375    1.113515   -0.000000
      3          1           0       -0.913770    1.112651    0.000000
      4          8           0        0.000028   -0.676652   -0.000000
 ---------------------------------------------------------------------
 Rotational constants (GHZ):    300.4113897     38.7429328     34.3171751
 Standard basis: 3-21G (6D, 7F)
 There are    18 symmetry adapted cartesian basis functions of A'  symmetry.
 There are     4 symmetry adapted cartesian basis functions of A"  symmetry.
 There are    18 symmetry adapted basis functions of A'  symmetry.
 There are     4 symmetry adapted basis functions of A"  symmetry.
    22 basis functions,    36 primitive gaussians,    22 cartesian basis functions
     8 alpha electrons        8 beta electrons
       nuclear repulsion energy        31.3957040124 Hartrees.
 NAtoms=    4 NActive=    4 NUniq=    4 SFac= 1.00D+00 NAtFMM=   60 NAOKFM=F Big=F
 Integral buffers will be    131072 words long.
 Raffenetti 1 integral format.
 Two-electron integral symmetry is turned on.
 One-electron integrals computed using PRISM.
 NBasis=    22 RedAO= T EigKep=  6.01D-02  NBF=    18     4
 NBsUse=    22 1.00D-06 EigRej= -1.00D+00 NBFU=    18     4
 Initial guess from the checkpoint file:  "/scratch/pbs.8340501.achilles/Gau-28039.chk"
 B after Tr=     0.000000    0.000000   -0.000000
         Rot=    1.000000    0.000000   -0.000000   -0.000178 Ang=  -0.02 deg.
 Initial guess orbital symmetries:
       Occupied  (A') (A') (A') (A') (A') (A') (A") (A')
       Virtual   (A') (A') (A') (A') (A') (A') (A') (A') (A') (A')
                 (A') (A") (A") (A")
 Keep R1 ints in memory in symmetry-blocked form, NReq=857309.
 Requested convergence on RMS density matrix=1.00D-08 within 128 cycles.
 Requested convergence on MAX density matrix=1.00D-06.
 Requested convergence on             energy=1.00D-06.
 No special actions if energy rises.
 SCF Done:  E(RHF) =  -113.221818504     A.U. after    9 cycles
            NFock=  9  Conv=0.94D-08     -V/T= 2.0027
 Calling FoFJK, ICntrl=      2127 FMM=F ISym2X=1 I1Cent= 0 IOpClX= 0 NMat=1 NMatS=1 NMatT=0.
 ***** Axes restored to original set *****
 -------------------------------------------------------------------
 Center     Atomic                   Forces (Hartrees/Bohr)
 Number     Number              X              Y              Z
 -------------------------------------------------------------------
      1        6           0.000778814    0.001496705    0.000000000
      2        1          -0.000047140    0.000032798    0.000000000
      3        1          -0.000020164   -0.000123618   -0.000000000
      4        8          -0.000711510   -0.001405885   -0.000000000
 -------------------------------------------------------------------
 Cartesian Forces:  Max     0.001496705 RMS     0.000667609

 GradGradGradGradGradGradGradGradGradGradGradGradGradGradGradGradGradGrad
 Berny optimization.
 Search for a local minimum.
 Step number   3 out of a maximum of   22
 All quantities printed in internal units (Hartrees-Bohrs-Radians)
 Update second derivatives using D2CorN and points    1    2    3
 DE= -1.76D-04 DEPred=-1.73D-04 R= 1.02D+00
 TightC=F SS=  1.41D+00  RLast= 3.73D-02 DXNew= 5.0454D-01 1.1191D-01
 Trust test= 1.02D+00 RLast= 3.73D-02 DXMaxT set to 3.00D-01
 The second derivative matrix:
                          X1        Y1        Z1        X2        Y2
           X1           0.77778
           Y1           0.13318   0.93124
           Z1          -0.00000  -0.00000   0.08942
           X2          -0.16327   0.13046  -0.00000   0.15285
           Y2           0.12542  -0.28559   0.00000  -0.13510   0.30390
           Z2          -0.00000  -0.00000  -0.03137  -0.00000   0.00000
           X3          -0.36644   0.01201   0.00000  -0.00737   0.00576
           Y3           0.01407  -0.07979   0.00000   0.03146   0.01239
           Z3          -0.00000  -0.00000  -0.03137  -0.00000   0.00000
           X4          -0.24808  -0.27564  -0.00000   0.01779   0.00392
           Y4          -0.27266  -0.56586  -0.00000  -0.02683  -0.03069
           Z4           0.00000   0.00000  -0.02667  -0.00000  -0.00000
                          Z2        X3        Y3        Z3        X4
           Z2           0.01101
           X3           0.00000   0.37912
           Y3           0.00000  -0.00538   0.07189
           Z3           0.01101   0.00000   0.00000   0.01101
           X4           0.00000  -0.00531  -0.04015   0.00000   0.23559
           Y4           0.00000  -0.01238  -0.00449   0.00000   0.31187
           Z4           0.00936  -0.00000  -0.00000   0.00936   0.00000
                          Y4        Z4
           Y4           0.60104
           Z4           0.00000   0.00796
 ITU=  1  1  0
     Eigenvalues ---    0.10123   0.12075   0.14884   0.42725   0.91002
     Eigenvalues ---    1.65254
 RFO step:  Lambda=-3.06647284D-06 EMin= 1.01233885D-01
 ClnCor:  largest displacement from symmetrization is 6.07D-19 for atom     1.
 Quartic linear search produced a step of  0.04049.
 ClnCor:  largest displacement from symmetrization is 6.12D-16 for atom     2.
 B after Tr=    -0.000303   -0.000417   -0.000000
         Rot=    1.000000   -0.000000   -0.000000    0.000054 Ang=   0.01 deg.
 Variable       Old X    -DE/DX   Delta X   Delta X   Delta X     New X
                                 (Linear)    (Quad)   (Total)
    X1       -0.90750   0.00078   0.00041   0.00000   0.00026  -0.90724
    Y1        1.43430   0.00150   0.00066   0.00072   0.00106   1.43536
    Z1       -0.00000   0.00000  -0.00000   0.00000   0.00000  -0.00000
    X2        0.03782  -0.00005  -0.00076   0.00077  -0.00034   0.03748
    Y2       -0.38129   0.00003  -0.00037   0.00154   0.00075  -0.38054
    Z2       -0.00000   0.00000  -0.00000   0.00000  -0.00000  -0.00000
    X3       -2.95236  -0.00002   0.00012   0.00013   0.00009  -2.95227
    Y3        1.34517  -0.00012  -0.00079   0.00028  -0.00061   1.34457
    Z3       -0.00000  -0.00000  -0.00000   0.00000   0.00000   0.00000
    X4        0.23284  -0.00071   0.00024  -0.00032  -0.00001   0.23282
    Y4        3.41148  -0.00141   0.00051  -0.00127  -0.00120   3.41028
    Z4        0.00000  -0.00000   0.00000  -0.00000  -0.00000  -0.00000
         Item               Value     Threshold  Converged?
 Maximum Force            0.001497     0.000450     NO 
 RMS     Force            0.000668     0.000300     NO 
 Maximum Displacement     0.001199     0.001800     YES
 RMS     Displacement     0.000554     0.001200     YES
 Predicted change in Energy=-1.799556D-06
 GradGradGradGradGradGradGradGradGradGradGradGradGradGradGradGradGradGrad

                          Input orientation:                          
 ---------------------------------------------------------------------
 Center     Atomic      Atomic             Coordinates (Angstroms)
 Number     Number       Type             X           Y           Z
 ---------------------------------------------------------------------
      1          6           0       -0.480091    0.759557   -0.000000
      2          1           0        0.019834   -0.201375   -0.000000
      3          1           0       -1.562273    0.711514    0.000000
      4          8           0        0.123205    1.804644   -0.000000
 ---------------------------------------------------------------------
                    Distance matrix (angstroms):
                    1          2          3          4
     1  C    0.000000
     2  H    1.083197   0.000000
     3  H    1.083248   1.826589   0.000000
     4  O    1.206720   2.008681   2.008923   0.000000
 Stoichiometry    CH2O
 Framework group  CS[SG(CH2O)]
 Deg. of freedom     5
 Full point group                 CS      NOp   2
 Largest Abelian subgroup         CS      NOp   2
 Largest concise Abelian subgroup C1      NOp   1
                         Standard orientation:                         
 ---------------------------------------------------------------------
 Center     Atomic      Atomic             Coordinates (Angstroms)
 Number     Number       Type             X           Y           Z
 ---------------------------------------------------------------------
      1          6           0       -0.000010    0.530552    0.000000
      2          1           0        0.913368    1.112837    0.000000
      3          1           0       -0.913221    1.113194    0.000000
      4          8           0       -0.000010   -0.676168    0.000000
 ---------------------------------------------------------------------
 Rotational constants (GHZ):    300.5940539     38.7985818     34.3632176
 Standard basis: 3-21G (6D, 7F)
 There are    18 symmetry adapted cartesian basis functions of A'  symmetry.
 There are     4 symmetry adapted cartesian basis functions of A"  symmetry.
 There are    18 symmetry adapted basis functions of A'  symmetry.
 There are     4 symmetry adapted basis functions of A"  symmetry.
    22 basis functions,    36 primitive gaussians,    22 cartesian basis functions
     8 alpha electrons        8 beta electrons
       nuclear repulsion energy        31.4160458682 Hartrees.
 NAtoms=    4 NActive=    4 NUniq=    4 SFac= 1.00D+00 NAtFMM=   60 NAOKFM=F Big=F
 Integral buffers will be    131072 words long.
 Raffenetti 1 integral format.
 Two-electron integral symmetry is turned on.
 One-electron integrals computed using PRISM.
 NBasis=    22 RedAO= T EigKep=  6.00D-02  NBF=    18     4
 NBsUse=    22 1.00D-06 EigRej= -1.00D+00 NBFU=    18     4
 Initial guess from the checkpoint file:  "/scratch/pbs.8340501.achilles/Gau-28039.chk"
 B after Tr=     0.000000    0.000000    0.000000
         Rot=    1.000000   -0.000000    0.000000    0.000095 Ang=   0.01 deg.
 Initial guess orbital symmetries:
       Occupied  (A') (A') (A') (A') (A') (A') (A") (A')
       Virtual   (A') (A') (A') (A') (A') (A') (A') (A') (A') (A')
                 (A') (A") (A") (A")
 Keep R1 ints in memory in symmetry-blocked form, NReq=857309.
 Requested convergence on RMS density matrix=1.00D-08 within 128 cycles.
 Requested convergence on MAX density matrix=1.00D-06.
 Requested convergence on             energy=1.00D-06.
 No special actions if energy rises.
 SCF Done:  E(RHF) =  -113.221819937     A.U. after    8 cycles
            NFock=  8  Conv=0.72D-08     -V/T= 2.0027
 Calling FoFJK, ICntrl=      2127 FMM=F ISym2X=1 I1Cent= 0 IOpClX= 0 NMat=1 NMatS=1 NMatT=0.
 ***** Axes restored to original set *****
 -------------------------------------------------------------------
 Center     Atomic                   Forces (Hartrees/Bohr)
 Number     Number              X              Y              Z
 -------------------------------------------------------------------
      1        6          -0.000128962   -0.000263962   -0.000000000
      2        1          -0.000010018   -0.000056645   -0.000000000
      3        1          -0.000003520    0.000003787   -0.000000000
      4        8           0.000142500    0.000316821   -0.000000000
 -------------------------------------------------------------------
 Cartesian Forces:  Max     0.000316821 RMS     0.000132390

 GradGradGradGradGradGradGradGradGradGradGradGradGradGradGradGradGradGrad
 Berny optimization.
 Search for a local minimum.
 Step number   4 out of a maximum of   22
 All quantities printed in internal units (Hartrees-Bohrs-Radians)
 Update second derivatives using D2CorN and points    1    2    3    4
 DE= -1.43D-06 DEPred=-1.80D-06 R= 7.96D-01
 TightC=F SS=  1.41D+00  RLast= 1.92D-03 DXNew= 5.0454D-01 5.7573D-03
 Trust test= 7.96D-01 RLast= 1.92D-03 DXMaxT set to 3.00D-01
 The second derivative matrix:
                          X1        Y1        Z1        X2        Y2
           X1           0.78618
           Y1           0.15963   1.00611
           Z1          -0.00000  -0.00000   0.08942
           X2          -0.16941   0.11852  -0.00000   0.15289
           Y2           0.14110  -0.24922  -0.00000  -0.13694   0.31335
           Z2          -0.00000  -0.00000  -0.03137  -0.00000  -0.00000
           X3          -0.36308   0.01873   0.00000  -0.00877   0.00700
           Y3           0.00367  -0.10239  -0.00000   0.03125   0.00708
           Z3          -0.00000  -0.00000  -0.03137  -0.00000  -0.00000
           X4          -0.25369  -0.29688   0.00000   0.02529  -0.01116
           Y4          -0.30440  -0.65450   0.00000  -0.01283  -0.07121
           Z4          -0.00000  -0.00000  -0.02667  -0.00000  -0.00000
                          Z2        X3        Y3        Z3        X4
           Z2           0.01101
           X3           0.00000   0.38028
           Y3           0.00000  -0.00670   0.07284
           Z3           0.01101   0.00000   0.00000   0.01101
           X4           0.00000  -0.00843  -0.02822   0.00000   0.23682
           Y4           0.00000  -0.01903   0.02247   0.00000   0.33626
           Z4           0.00936   0.00000  -0.00000   0.00936   0.00000
                          Y4        Z4
           Y4           0.70324
           Z4           0.00000   0.00796
 ITU=  1  1  1  0
     Eigenvalues ---    0.10126   0.12889   0.14573   0.45062   0.91017
     Eigenvalues ---    1.81950
 RFO step:  Lambda=-1.85984138D-08 EMin= 1.01264417D-01
 ClnCor:  largest displacement from symmetrization is 1.40D-18 for atom     1.
 Quartic linear search produced a step of -0.16949.
 ClnCor:  largest displacement from symmetrization is 2.75D-15 for atom     3.
 B after Tr=     0.000044    0.000064   -0.000000
         Rot=    1.000000   -0.000000   -0.000000   -0.000007 Ang=  -0.00 deg.
 Variable       Old X    -DE/DX   Delta X   Delta X   Delta X     New X
                                 (Linear)    (Quad)   (Total)
    X1       -0.90724  -0.00013  -0.00004   0.00007   0.00005  -0.90719
    Y1        1.43536  -0.00026  -0.00018   0.00004  -0.00009   1.43526
    Z1       -0.00000  -0.00000   0.00000  -0.00000   0.00000  -0.00000
    X2        0.03748  -0.00001   0.00006  -0.00020  -0.00010   0.03738
    Y2       -0.38054  -0.00006  -0.00013  -0.00020  -0.00027  -0.38081
    Z2       -0.00000  -0.00000   0.00000   0.00000  -0.00000  -0.00000
    X3       -2.95227  -0.00000  -0.00001   0.00005   0.00006  -2.95221
    Y3        1.34457   0.00000   0.00010  -0.00012   0.00000   1.34457
    Z3       -0.00000  -0.00000   0.00000   0.00000   0.00000   0.00000
    X4        0.23282   0.00014   0.00000  -0.00001  -0.00001   0.23281
    Y4        3.41028   0.00032   0.00020   0.00008   0.00035   3.41064
    Z4       -0.00000  -0.00000   0.00000   0.00000  -0.00000  -0.00000
         Item               Value     Threshold  Converged?
 Maximum Force            0.000317     0.000450     YES
 RMS     Force            0.000132     0.000300     YES
 Maximum Displacement     0.000354     0.001800     YES
 RMS     Displacement     0.000135     0.001200     YES
 Predicted change in Energy=-7.282764D-08
 Optimization completed.
    -- Stationary point found.
 GradGradGradGradGradGradGradGradGradGradGradGradGradGradGradGradGradGrad

                          Input orientation:                          
 ---------------------------------------------------------------------
 Center     Atomic      Atomic             Coordinates (Angstroms)
 Number     Number       Type             X           Y           Z
 ---------------------------------------------------------------------
      1          6           0       -0.480091    0.759557   -0.000000
      2          1           0        0.019834   -0.201375   -0.000000
      3          1           0       -1.562273    0.711514   -0.000000
      4          8           0        0.123205    1.804644   -0.000000
 ---------------------------------------------------------------------
                    Distance matrix (angstroms):
                    1          2          3          4
     1  C    0.000000
     2  H    1.083197   0.000000
     3  H    1.083248   1.826589   0.000000
     4  O    1.206720   2.008681   2.008923   0.000000
 Stoichiometry    CH2O
 Framework group  CS[SG(CH2O)]
 Deg. of freedom     5
 Full point group                 CS      NOp   2
 Largest Abelian subgroup         CS      NOp   2
 Largest concise Abelian subgroup C1      NOp   1
                         Standard orientation:                         
 ---------------------------------------------------------------------
 Center     Atomic      Atomic             Coordinates (Angstroms)
 Number     Number       Type             X           Y           Z
 ---------------------------------------------------------------------
      1          6           0       -0.000010    0.530552    0.000000
      2          1           0        0.913368    1.112837    0.000000
      3          1           0       -0.913221    1.113194    0.000000
      4          8           0       -0.000010   -0.676168    0.000000
 ---------------------------------------------------------------------
 Rotational constants (GHZ):    300.5940539     38.7985818     34.3632176

 **********************************************************************

            Population analysis using the SCF density.

 **********************************************************************

 Orbital symmetries:
       Occupied  (A') (A') (A') (A') (A') (A') (A") (A')
       Virtual   (A") (A') (A') (A') (A") (A') (A') (A') (A') (A')
                 (A") (A') (A') (A')
 The electronic state is 1-A'.
 Alpha  occ. eigenvalues --  -20.48362 -11.28086  -1.41789  -0.86978  -0.69935
 Alpha  occ. eigenvalues --   -0.63697  -0.52675  -0.43291
 Alpha virt. eigenvalues --    0.14752   0.27880   0.37149   0.45338   0.93126
 Alpha virt. eigenvalues --    1.00328   1.03806   1.16747   1.28147   1.57892
 Alpha virt. eigenvalues --    1.86712   1.90350   1.98097   3.32234
          Condensed to atoms (all electrons):
               1          2          3          4
     1  C    4.713705   0.333826   0.333778   0.487320
     2  H    0.333826   0.617824  -0.073699  -0.053208
     3  H    0.333778  -0.073699   0.617836  -0.053175
     4  O    0.487320  -0.053208  -0.053175   8.100949
 Mulliken charges:
               1
     1  C    0.131370
     2  H    0.175257
     3  H    0.175260
     4  O   -0.481887
 Sum of Mulliken charges =  -0.00000
 Mulliken charges with hydrogens summed into heavy atoms:
               1
     1  C    0.481887
     4  O   -0.481887
 Electronic spatial extent (au):  <R**2>=             60.1133
 Charge=             -0.0000 electrons
 Dipole moment (field-independent basis, Debye):
    X=             -0.0000    Y=              2.6575    Z=              0.0000  Tot=              2.6575
 Quadrupole moment (field-independent basis, Debye-Ang):
   XX=            -11.4657   YY=            -12.2430   ZZ=            -11.5520
   XY=             -0.0002   XZ=              0.0000   YZ=              0.0000
 Traceless Quadrupole moment (field-independent basis, Debye-Ang):
   XX=              0.2879   YY=             -0.4895   ZZ=              0.2016
   XY=             -0.0002   XZ=              0.0000   YZ=              0.0000
 Octapole moment (field-independent basis, Debye-Ang**2):
  XXX=              0.0003  YYY=             -0.4910  ZZZ=              0.0000  XYY=             -0.0004
  XXY=              0.0193  XXZ=              0.0000  XZZ=              0.0000  YZZ=             -1.0683
  YYZ=              0.0000  XYZ=              0.0000
 Hexadecapole moment (field-independent basis, Debye-Ang**3):
 XXXX=            -16.4132 YYYY=            -42.7300 ZZZZ=             -9.1290 XXXY=              0.0004
 XXXZ=              0.0000 YYYX=             -0.0004 YYYZ=              0.0000 ZZZX=              0.0000
 ZZZY=              0.0000 XXYY=             -9.3437 XXZZ=             -4.4646 YYZZ=             -8.6997
 XXYZ=              0.0000 YYXZ=              0.0000 ZZXY=              0.0001
 N-N= 3.141604586825D+01 E-N=-3.295015500681D+02  KE= 1.129220850093D+02
 Symmetry A'   KE= 1.095742410640D+02
 Symmetry A"   KE= 3.347843945311D+00
 1\1\ WCSS.PL-BEM-WN1508\FOpt\RHF\3-21G\C1H2O1\ROOT\07-Mar-2019\0\\# op
 t=cartesian hf/3-21g\\Formaldehyde\\0,1\C,-0.4800908804,0.759557267,0.
 \H,0.0198340587,-0.2013750698,0.\H,-1.5622726892,0.7115135425,0.\O,0.1
 232049309,1.8046444103,0.\\Version=ES64L-G09RevE.01\State=1-A'\HF=-113
 .2218199\RMSD=7.192e-09\RMSF=1.324e-04\Dipole=-0.5227115,-0.9054837,0.
 \Quadrupole=0.0697313,-0.2196081,0.1498769,-0.2501492,0.,0.\PG=CS [SG(
 C1H2O1)]\\@


 IF I HAVE SEEN FARTHER, IT IS BY STANDING ON THE
 SHOULDERS OF GIANTS. -- SIR ISAAC NEWTON
 Job cpu time:       0 days  0 hours  0 minutes  3.1 seconds.
 File lengths (MBytes):  RWF=      5 Int=      0 D2E=      0 Chk=      1 Scr=      1
 Normal termination of Gaussian 09 at Thu Mar  7 10:16:45 2019.
