 Entering Gaussian System, Link 0=/usr/local/gaussian/2009-E.01/g09/g09
 Initial command:
 /usr/local/gaussian/2009-E.01/g09/l1.exe "/scratch/pbs.8389225.achilles/Gau-77310.inp" -scrdir="/scratch/pbs.8389225.achilles/"
 Entering Link 1 = /usr/local/gaussian/2009-E.01/g09/l1.exe PID=     77311.
  
 Copyright (c) 1988,1990,1992,1993,1995,1998,2003,2009,2015,
            Gaussian, Inc.  All Rights Reserved.
  
 This is part of the Gaussian(R) 09 program.  It is based on
 the Gaussian(R) 03 system (copyright 2003, Gaussian, Inc.),
 the Gaussian(R) 98 system (copyright 1998, Gaussian, Inc.),
 the Gaussian(R) 94 system (copyright 1995, Gaussian, Inc.),
 the Gaussian 92(TM) system (copyright 1992, Gaussian, Inc.),
 the Gaussian 90(TM) system (copyright 1990, Gaussian, Inc.),
 the Gaussian 88(TM) system (copyright 1988, Gaussian, Inc.),
 the Gaussian 86(TM) system (copyright 1986, Carnegie Mellon
 University), and the Gaussian 82(TM) system (copyright 1983,
 Carnegie Mellon University). Gaussian is a federally registered
 trademark of Gaussian, Inc.
  
 This software contains proprietary and confidential information,
 including trade secrets, belonging to Gaussian, Inc.
  
 This software is provided under written license and may be
 used, copied, transmitted, or stored only in accord with that
 written license.
  
 The following legend is applicable only to US Government
 contracts under FAR:
  
                    RESTRICTED RIGHTS LEGEND
  
 Use, reproduction and disclosure by the US Government is
 subject to restrictions as set forth in subparagraphs (a)
 and (c) of the Commercial Computer Software - Restricted
 Rights clause in FAR 52.227-19.
  
 Gaussian, Inc.
 340 Quinnipiac St., Bldg. 40, Wallingford CT 06492
  
  
 ---------------------------------------------------------------
 Warning -- This program may not be used in any manner that
 competes with the business of Gaussian, Inc. or will provide
 assistance to any competitor of Gaussian, Inc.  The licensee
 of this program is prohibited from giving any competitor of
 Gaussian, Inc. access to this program.  By using this program,
 the user acknowledges that Gaussian, Inc. is engaged in the
 business of creating and licensing software in the field of
 computational chemistry and represents and warrants to the
 licensee that it is not a competitor of Gaussian, Inc. and that
 it will not use this program in any manner prohibited above.
 ---------------------------------------------------------------
  

 Cite this work as:
 Gaussian 09, Revision E.01,
 M. J. Frisch, G. W. Trucks, H. B. Schlegel, G. E. Scuseria, 
 M. A. Robb, J. R. Cheeseman, G. Scalmani, V. Barone, B. Mennucci, 
 G. A. Petersson, H. Nakatsuji, M. Caricato, X. Li, H. P. Hratchian, 
 A. F. Izmaylov, J. Bloino, G. Zheng, J. L. Sonnenberg, M. Hada, 
 M. Ehara, K. Toyota, R. Fukuda, J. Hasegawa, M. Ishida, T. Nakajima, 
 Y. Honda, O. Kitao, H. Nakai, T. Vreven, J. A. Montgomery, Jr., 
 J. E. Peralta, F. Ogliaro, M. Bearpark, J. J. Heyd, E. Brothers, 
 K. N. Kudin, V. N. Staroverov, T. Keith, R. Kobayashi, J. Normand, 
 K. Raghavachari, A. Rendell, J. C. Burant, S. S. Iyengar, J. Tomasi, 
 M. Cossi, N. Rega, J. M. Millam, M. Klene, J. E. Knox, J. B. Cross, 
 V. Bakken, C. Adamo, J. Jaramillo, R. Gomperts, R. E. Stratmann, 
 O. Yazyev, A. J. Austin, R. Cammi, C. Pomelli, J. W. Ochterski, 
 R. L. Martin, K. Morokuma, V. G. Zakrzewski, G. A. Voth, 
 P. Salvador, J. J. Dannenberg, S. Dapprich, A. D. Daniels, 
 O. Farkas, J. B. Foresman, J. V. Ortiz, J. Cioslowski, 
 and D. J. Fox, Gaussian, Inc., Wallingford CT, 2013.
 
 ******************************************
 Gaussian 09:  ES64L-G09RevE.01 30-Nov-2015
                11-Mar-2019 
 ******************************************
 Default route:  MAXDISK=1700GB
 -------------------
 # freq=roa hf/3-21g
 -------------------
 1/10=4,30=1,38=1,83=21/1,3;
 2/12=2,17=6,18=5,40=1/2;
 3/5=5,11=9,16=1,25=1,30=1,36=2,71=2,140=1/1,2,3;
 4//1;
 5/5=2,38=5,98=1/2;
 8/6=4,10=90,11=11/1;
 10/13=10,15=4,49=111,72=3/2;
 11/6=3,8=1,9=11,15=111,16=1/1,2,10;
 10/6=1,49=111/2;
 6/7=2,8=2,9=2,10=2,18=1,28=1/1;
 7/8=1,10=1,25=1/1,2,3,16;
 1/10=4,30=1/3;
 99//99;
 ------------
 Formaldehyde
 ------------
 Symbolic Z-matrix:
 Charge =  0 Multiplicity = 1
 C                    -0.49738   0.72775   0. 
 H                     0.03578  -0.19996   0. 
 H                    -1.56738   0.72775   0. 
 O                     0.12966   1.8188    0. 
 
 Using perturbation frequencies:    0.085645

 GradGradGradGradGradGradGradGradGradGradGradGradGradGradGradGradGradGrad
 Berny optimization.
 Initialization pass.
 Trust Radius=3.00D-01 FncErr=1.00D-07 GrdErr=1.00D-07
 Number of steps in this run=      2 maximum allowed number of steps=      2.
 GradGradGradGradGradGradGradGradGradGradGradGradGradGradGradGradGradGrad

                          Input orientation:                          
 ---------------------------------------------------------------------
 Center     Atomic      Atomic             Coordinates (Angstroms)
 Number     Number       Type             X           Y           Z
 ---------------------------------------------------------------------
      1          6           0       -0.497382    0.727749    0.000000
      2          1           0        0.035782   -0.199956    0.000000
      3          1           0       -1.567382    0.727749    0.000000
      4          8           0        0.129658    1.818799    0.000000
 ---------------------------------------------------------------------
                    Distance matrix (angstroms):
                    1          2          3          4
     1  C    0.000000
     2  H    1.070000   0.000000
     3  H    1.070000   1.852234   0.000000
     4  O    1.258400   2.020937   2.017508   0.000000
 Stoichiometry    CH2O
 Framework group  CS[SG(CH2O)]
 Deg. of freedom     5
 Full point group                 CS      NOp   2
 Largest Abelian subgroup         CS      NOp   2
 Largest concise Abelian subgroup C1      NOp   1
                         Standard orientation:                         
 ---------------------------------------------------------------------
 Center     Atomic      Atomic             Coordinates (Angstroms)
 Number     Number       Type             X           Y           Z
 ---------------------------------------------------------------------
      1          6           0        0.000199    0.562211    0.000000
      2          1           0        0.924720    1.100877    0.000000
      3          1           0       -0.927506    1.095374    0.000000
      4          8           0        0.000199   -0.696189   -0.000000
 ---------------------------------------------------------------------
 Rotational constants (GHZ):    292.3297840     36.5731199     32.5062871
 Standard basis: 3-21G (6D, 7F)
 There are    18 symmetry adapted cartesian basis functions of A'  symmetry.
 There are     4 symmetry adapted cartesian basis functions of A"  symmetry.
 There are    18 symmetry adapted basis functions of A'  symmetry.
 There are     4 symmetry adapted basis functions of A"  symmetry.
    22 basis functions,    36 primitive gaussians,    22 cartesian basis functions
     8 alpha electrons        8 beta electrons
       nuclear repulsion energy        30.5982777181 Hartrees.
 NAtoms=    4 NActive=    4 NUniq=    4 SFac= 1.00D+00 NAtFMM=   60 NAOKFM=F Big=F
 Integral buffers will be    131072 words long.
 Raffenetti 1 integral format.
 Two-electron integral symmetry is turned on.
 One-electron integrals computed using PRISM.
 NBasis=    22 RedAO= T EigKep=  6.11D-02  NBF=    18     4
 NBsUse=    22 1.00D-06 EigRej= -1.00D+00 NBFU=    18     4
 ExpMin= 1.83D-01 ExpMax= 3.22D+02 ExpMxC= 3.22D+02 IAcc=1 IRadAn=         1 AccDes= 0.00D+00
 Harris functional with IExCor=  205 and IRadAn=       1 diagonalized for initial guess.
 HarFok:  IExCor=  205 AccDes= 0.00D+00 IRadAn=         1 IDoV= 1 UseB2=F ITyADJ=14
 ICtDFT=  3500011 ScaDFX=  1.000000  1.000000  1.000000  1.000000
 FoFCou: FMM=F IPFlag=           0 FMFlag=      100000 FMFlg1=           0
         NFxFlg=           0 DoJE=T BraDBF=F KetDBF=T FulRan=T
         wScrn=  0.000000 ICntrl=     500 IOpCl=  0 I1Cent=   200000004 NGrid=           0
         NMat0=    1 NMatS0=      1 NMatT0=    0 NMatD0=    1 NMtDS0=    0 NMtDT0=    0
 Petite list used in FoFCou.
 Initial guess orbital symmetries:
       Occupied  (A') (A') (A') (A') (A') (A') (A") (A')
       Virtual   (A") (A') (A') (A') (A") (A') (A') (A') (A') (A')
                 (A") (A') (A') (A')
 The electronic state of the initial guess is 1-A'.
 Keep R1 ints in memory in symmetry-blocked form, NReq=857309.
 Requested convergence on RMS density matrix=1.00D-08 within 128 cycles.
 Requested convergence on MAX density matrix=1.00D-06.
 Requested convergence on             energy=1.00D-06.
 No special actions if energy rises.
 SCF Done:  E(RHF) =  -113.217409254     A.U. after   11 cycles
            NFock= 11  Conv=0.24D-08     -V/T= 2.0040
 Range of M.O.s used for correlation:     1    22
 NBasis=    22 NAE=     8 NBE=     8 NFC=     0 NFV=     0
 NROrb=     22 NOA=     8 NOB=     8 NVA=    14 NVB=    14
          Differentiating once with respect to electric field.
                with respect to dipole field.
                with respect to quadrupole field.
          Differentiating once with respect to magnetic field using GIAOs.
          Electric field/nuclear overlap derivatives assumed to be zero.
 Keep R1 and R3 ints in memory in symmetry-blocked form, NReq=1439815.
 FoFJK:  IHMeth= 1 ICntrl=    6127 DoSepK=F KAlg= 0 I1Cent=   0 FoldK=F
 IRaf=         1 NMat=   1 IRICut=       1 DoRegI=T DoRafI=F ISym2E= 0.
          There are    12 degrees of freedom in the 1st order CPHF.  IDoFFX=0 NUNeed=    12.
     11 vectors produced by pass  0 Test12= 1.87D-15 8.33D-09 XBig12= 1.00D+00 6.73D-01.
 AX will form    11 AO Fock derivatives at one time.
     11 vectors produced by pass  1 Test12= 1.87D-15 8.33D-09 XBig12= 9.15D-02 8.74D-02.
     11 vectors produced by pass  2 Test12= 1.87D-15 8.33D-09 XBig12= 1.21D-02 5.17D-02.
     11 vectors produced by pass  3 Test12= 1.87D-15 8.33D-09 XBig12= 1.69D-04 5.26D-03.
     11 vectors produced by pass  4 Test12= 1.87D-15 8.33D-09 XBig12= 2.21D-06 5.68D-04.
     11 vectors produced by pass  5 Test12= 1.87D-15 8.33D-09 XBig12= 1.39D-08 5.10D-05.
     11 vectors produced by pass  6 Test12= 1.87D-15 8.33D-09 XBig12= 8.32D-11 3.23D-06.
      9 vectors produced by pass  7 Test12= 1.87D-15 8.33D-09 XBig12= 6.48D-13 1.92D-07.
      1 vectors produced by pass  8 Test12= 1.87D-15 8.33D-09 XBig12= 2.22D-15 1.44D-08.
 InvSVY:  IOpt=1 It=  1 EMax= 1.78D-15
 Solved reduced A of dimension    87 with    12 vectors.
 Isotropic polarizability for W=    0.085645       11.26 Bohr**3.
 Dipole-magnetic dipole polarizability for W=    0.085645:
                 1             2             3 
      1   0.000000D+00  0.000000D+00  0.847116D+00
      2   0.000000D+00  0.000000D+00 -0.307914D-01
      3   0.828820D+01 -0.360955D-02  0.000000D+00
 DQ contribution to OR G for W=    0.085645:
                 1             2             3 
      1   0.000000D+00  0.000000D+00 -0.613976D+01
      2   0.000000D+00  0.000000D+00 -0.183204D-02
      3   0.186024D+02  0.190347D-01  0.000000D+00
 Optical Rotation G' tensor for W=    0.085645:
                 1             2             3 
      1   0.000000D+00  0.000000D+00 -0.725992D+00
      2   0.000000D+00  0.000000D+00  0.107506D-01
      3  -0.725992D+00  0.107506D-01  0.000000D+00
 OR G Eigenvalues:    -0.7261     0.0000     0.7261  Iso=    -0.0000
 Eigenvectors:
   (1)   0.707029  -0.010470   0.707107
   (2)   0.014806   0.999890  -0.000000
   (3)  -0.707029   0.010470   0.707107
 w=    0.085645 a.u., Optical Rotation Beta=      0.0000 au.
 Molar Mass =     30.0262 grams/mole, [Alpha] ( 5320.0 A) =        0.00 deg.
 End of Minotr F.D. properties on file   721 Mask=       B NFrqRd=     1 NDeriv=     1 ND12= 1 LenFil=      39:
 Frequencies=    0.085645
 Property number 1 -- Alpha(-w,w) frequency  1    0.085645:
                 1             2             3 
      1   0.109885D+02  0.104931D-01  0.000000D+00
      2   0.104931D-01  0.178800D+02  0.000000D+00
      3   0.000000D+00  0.000000D+00  0.492357D+01
 Property number 2 -- FD Optical Rotation Tensor frequency  1    0.085645:
                 1             2             3 
      1   0.000000D+00  0.000000D+00  0.847116D+00
      2   0.000000D+00  0.000000D+00 -0.307914D-01
      3   0.828820D+01 -0.360955D-02  0.000000D+00
 Property number 4 -- D-Q polarizability frequency  1    0.085645:
                 1             2             3 
      1  -0.801805D-01  0.234480D+01  0.000000D+00
      2   0.795888D-01  0.189459D+01  0.000000D+00
      3   0.591718D-03 -0.423939D+01  0.000000D+00
      4   0.209472D+02  0.605541D-01  0.000000D+00
      5   0.000000D+00  0.000000D+00 -0.124032D-02
      6   0.000000D+00  0.000000D+00  0.190037D+01
 End of Minotr F.D. properties file   722 does not exist.
 End of Minotr F.D. properties file   788 does not exist.
 Symmetrizing basis deriv contribution to polar:
 IMax=3 JMax=2 DiffMx= 0.00D+00
 G2DrvN: will do     5 centers at a time, making    1 passes.
 PxScal for G2LodP:  IOpCl= 0 ISclPx=1 IMOff=     1 NMtTot=    25 NTT=     253 ScalPx= 3.76D+00
 Calling FoFCou, ICntrl=  3107 FMM=F I1Cent=   0 AccDes= 0.00D+00.
 End of G2Drv F.D. properties on file   721 Mask=       B NFrqRd=     1 NDeriv=     1 ND12= 1 LenFil=      39:
 Frequencies=    0.085645
 Property number 1 -- Alpha(-w,w) frequency  1    0.085645:
                 1             2             3 
      1   0.109885D+02  0.104931D-01  0.000000D+00
      2   0.104931D-01  0.178800D+02  0.000000D+00
      3   0.000000D+00  0.000000D+00  0.492357D+01
 Property number 2 -- FD Optical Rotation Tensor frequency  1    0.085645:
                 1             2             3 
      1   0.000000D+00  0.000000D+00  0.847116D+00
      2   0.000000D+00  0.000000D+00 -0.307914D-01
      3   0.828820D+01 -0.360955D-02  0.000000D+00
 Property number 4 -- D-Q polarizability frequency  1    0.085645:
                 1             2             3 
      1  -0.801805D-01  0.234480D+01  0.000000D+00
      2   0.795888D-01  0.189459D+01  0.000000D+00
      3   0.591718D-03 -0.423939D+01  0.000000D+00
      4   0.209472D+02  0.605541D-01  0.000000D+00
      5   0.000000D+00  0.000000D+00 -0.124032D-02
      6   0.000000D+00  0.000000D+00  0.190037D+01
 End of G2Drv F.D. properties on file   722 Mask=       B NFrqRd=     1 NDeriv=    12 ND12= 1 LenFil=     435:
 Frequencies=    0.085645
 Property number 1 -- Alpha(-w,w) derivatives, frequency  1    0.085645:
                 1             2             3             4             5 
      1   0.138219D-01 -0.976650D+00  0.000000D+00  0.557857D-01 -0.129674D-01
      2  -0.976650D+00 -0.403728D-02  0.000000D+00 -0.129674D-01  0.149595D+00
      3   0.000000D+00  0.000000D+00 -0.125060D-02  0.000000D+00  0.000000D+00
                 6             7             8             9            10 
      1   0.000000D+00  0.000000D+00  0.000000D+00 -0.430875D-03  0.232901D+01
      2   0.000000D+00  0.000000D+00  0.000000D+00  0.183300D+01  0.625015D+00
      3   0.324972D+00 -0.430875D-03  0.183300D+01  0.000000D+00  0.000000D+00
                11            12            13            14            15 
      1   0.625015D+00  0.000000D+00  0.240731D+00  0.260042D+00  0.000000D+00
      2   0.916399D-01  0.000000D+00  0.260042D+00  0.746957D-01  0.000000D+00
      3   0.000000D+00 -0.100456D+00  0.000000D+00  0.000000D+00  0.324045D-01
                16            17            18            19            20 
      1   0.000000D+00  0.000000D+00 -0.374732D+00 -0.234321D+01  0.622803D+00
      2   0.000000D+00  0.000000D+00 -0.330911D+00  0.622803D+00 -0.917788D-01
      3  -0.374732D+00 -0.330911D+00  0.000000D+00  0.000000D+00  0.000000D+00
                21            22            23            24            25 
      1   0.000000D+00  0.230835D+00 -0.251316D+00  0.000000D+00  0.000000D+00
      2   0.000000D+00 -0.251316D+00  0.697672D-01  0.000000D+00  0.000000D+00
      3   0.101606D+00  0.000000D+00  0.000000D+00  0.331004D-01  0.374967D+00
                26            27            28            29            30 
      1   0.000000D+00  0.374967D+00  0.386083D-03 -0.271168D+00  0.000000D+00
      2   0.000000D+00 -0.329332D+00 -0.271168D+00  0.417618D-02  0.000000D+00
      3  -0.329332D+00  0.000000D+00  0.000000D+00  0.000000D+00  0.999530D-04
                31            32            33            34            35 
      1  -0.527352D+00  0.424167D-02  0.000000D+00  0.000000D+00  0.000000D+00
      2   0.424167D-02 -0.294058D+00  0.000000D+00  0.000000D+00  0.000000D+00
      3   0.000000D+00  0.000000D+00 -0.390477D+00  0.196671D-03 -0.117276D+01
                36 
      1   0.196671D-03
      2  -0.117276D+01
      3   0.000000D+00
 Property number 2 -- FD Optical Rotation Tensor derivatives, frequency  1    0.085645:
                 1             2             3             4             5 
      1   0.000000D+00  0.000000D+00 -0.910179D-03  0.000000D+00  0.000000D+00
      2   0.000000D+00  0.000000D+00  0.738676D-03  0.000000D+00  0.000000D+00
      3  -0.193586D-02  0.462499D+00  0.000000D+00 -0.992468D-01  0.238792D-03
                 6             7             8             9            10 
      1  -0.773131D-01  0.204508D-02 -0.131963D+00  0.000000D+00  0.000000D+00
      2   0.657989D-02  0.323653D+01  0.107978D-01  0.000000D+00  0.000000D+00
      3   0.000000D+00  0.000000D+00  0.000000D+00 -0.500555D-03 -0.390378D+00
                11            12            13            14            15 
      1   0.000000D+00 -0.297320D-01  0.000000D+00  0.000000D+00 -0.703834D-02
      2   0.000000D+00  0.164583D+00  0.000000D+00  0.000000D+00  0.125681D+00
      3  -0.555438D-01  0.000000D+00  0.672073D-01 -0.154808D-01  0.000000D+00
                16            17            18            19            20 
      1   0.144827D+00  0.139591D+00  0.000000D+00  0.000000D+00  0.000000D+00
      2  -0.136361D+01 -0.168372D+01  0.000000D+00  0.000000D+00  0.000000D+00
      3   0.000000D+00  0.000000D+00  0.198119D-01  0.392148D+00 -0.550264D-01
                21            22            23            24            25 
      1   0.300137D-01  0.000000D+00  0.000000D+00 -0.637614D-02 -0.147110D+00
      2   0.165572D+00  0.000000D+00  0.000000D+00 -0.123455D+00 -0.137025D+01
      3   0.000000D+00  0.682627D-01  0.158398D-01  0.000000D+00  0.000000D+00
                26            27            28            29            30 
      1   0.141943D+00  0.000000D+00  0.000000D+00  0.000000D+00  0.628479D-03
      2   0.167732D+01  0.000000D+00  0.000000D+00  0.000000D+00 -0.330894D+00
      3   0.000000D+00 -0.190700D-01  0.166528D-03 -0.351928D+00  0.000000D+00
                31            32            33            34            35 
      1   0.000000D+00  0.000000D+00  0.907276D-01  0.238001D-03 -0.149571D+00
      2   0.000000D+00  0.000000D+00 -0.880624D-02 -0.502679D+00 -0.439535D-02
      3  -0.362232D-01 -0.597794D-03  0.000000D+00  0.000000D+00  0.000000D+00
                36 
      1   0.000000D+00
      2   0.000000D+00
      3  -0.241386D-03
 Property number 4 -- D-Q polarizability derivatives, frequency  1    0.085645:
                 1             2             3             4             5 
      1  -0.110030D+01  0.122608D-01  0.000000D+00 -0.219959D-02 -0.155590D+01
      2  -0.302872D+01 -0.140642D-01  0.000000D+00 -0.907568D-02  0.653945D+00
      3   0.412902D+01  0.180343D-02  0.000000D+00  0.112753D-01  0.901957D+00
      4   0.126233D-01 -0.409652D+01  0.000000D+00  0.346581D-02 -0.349083D-01
      5   0.000000D+00  0.000000D+00  0.411200D+00  0.000000D+00  0.000000D+00
      6   0.000000D+00  0.000000D+00 -0.276150D-03  0.000000D+00  0.000000D+00
                 6             7             8             9            10 
      1   0.000000D+00  0.000000D+00  0.000000D+00  0.265457D+00  0.602481D+00
      2   0.000000D+00  0.000000D+00  0.000000D+00  0.599544D+00  0.188665D+01
      3   0.000000D+00  0.000000D+00  0.000000D+00 -0.865001D+00 -0.248913D+01
      4   0.000000D+00  0.000000D+00  0.000000D+00  0.645774D-02  0.519750D+01
      5  -0.393907D-02 -0.404555D+01 -0.121333D-01  0.000000D+00  0.000000D+00
      6  -0.466525D-01  0.810653D-03 -0.816722D+00  0.000000D+00  0.000000D+00
                11            12            13            14            15 
      1   0.134912D+01  0.000000D+00  0.548298D+00  0.629069D+00  0.000000D+00
      2  -0.109900D-01  0.000000D+00  0.431010D+00  0.323596D+00  0.000000D+00
      3  -0.133813D+01  0.000000D+00 -0.979307D+00 -0.952665D+00  0.000000D+00
      4   0.210906D+01  0.000000D+00  0.108101D+01  0.111625D+01  0.000000D+00
      5   0.000000D+00 -0.246662D+00  0.000000D+00  0.000000D+00 -0.125280D+00
      6   0.000000D+00 -0.153395D+00  0.000000D+00  0.000000D+00 -0.684510D-01
                16            17            18            19            20 
      1   0.000000D+00  0.000000D+00 -0.650611D-03  0.646459D+00 -0.136957D+01
      2   0.000000D+00  0.000000D+00 -0.243214D+00  0.184288D+01  0.321060D-01
      3   0.000000D+00  0.000000D+00  0.243865D+00 -0.248934D+01  0.133746D+01
      4   0.000000D+00  0.000000D+00 -0.599692D+00 -0.521440D+01  0.209380D+01
      5   0.176804D+01  0.171292D+01  0.000000D+00  0.000000D+00  0.000000D+00
      6   0.153504D+00 -0.739893D-01  0.000000D+00  0.000000D+00  0.000000D+00
                21            22            23            24            25 
      1   0.000000D+00 -0.556682D+00  0.624145D+00  0.000000D+00  0.000000D+00
      2   0.000000D+00 -0.413619D+00  0.312668D+00  0.000000D+00  0.000000D+00
      3   0.000000D+00  0.970301D+00 -0.936813D+00  0.000000D+00  0.000000D+00
      4   0.000000D+00  0.105552D+01 -0.108824D+01  0.000000D+00  0.000000D+00
      5  -0.248089D+00  0.000000D+00  0.000000D+00  0.122974D+00  0.177676D+01
      6   0.153562D+00  0.000000D+00  0.000000D+00 -0.680971D-01 -0.154025D+00
                26            27            28            29            30 
      1   0.000000D+00 -0.420258D-02 -0.148642D+00  0.818521D-02  0.000000D+00
      2   0.000000D+00 -0.235100D+00 -0.700811D+00 -0.705178D-02  0.000000D+00
      3   0.000000D+00  0.239303D+00  0.849453D+00 -0.113343D-02  0.000000D+00
      4   0.000000D+00  0.596714D+00  0.427973D-02 -0.106341D+00  0.000000D+00
      5  -0.170448D+01  0.000000D+00  0.000000D+00  0.000000D+00  0.835517D-01
      6  -0.692798D-01  0.000000D+00  0.000000D+00  0.000000D+00  0.109271D-03
                31            32            33            34            35 
      1   0.105836D-01  0.302688D+00  0.000000D+00  0.000000D+00  0.000000D+00
      2  -0.831473D-02 -0.129021D+01  0.000000D+00  0.000000D+00  0.000000D+00
      3  -0.226886D-02  0.987521D+00  0.000000D+00  0.000000D+00  0.000000D+00
      4  -0.214000D+01  0.689247D-02  0.000000D+00  0.000000D+00  0.000000D+00
      5   0.000000D+00  0.000000D+00  0.624470D-02  0.500745D+00  0.369199D-02
      6   0.000000D+00  0.000000D+00  0.183201D+00 -0.289723D-03  0.959991D+00
                36 
      1  -0.260603D+00
      2  -0.121230D+00
      3   0.381833D+00
      4  -0.347889D-02
      5   0.000000D+00
      6   0.000000D+00
 End of G2Drv F.D. properties file   788 does not exist.
          IDoAtm=1111
          Differentiating once with respect to electric field.
                with respect to dipole field.
          Differentiating once with respect to nuclear coordinates.
 Keep R1 and R3 ints in memory in symmetry-blocked form, NReq=845114.
          There are    15 degrees of freedom in the 1st order CPHF.  IDoFFX=5 NUNeed=    15.
     12 vectors produced by pass  0 Test12= 7.47D-16 6.67D-09 XBig12= 5.73D+00 1.90D+00.
 AX will form    12 AO Fock derivatives at one time.
     12 vectors produced by pass  1 Test12= 7.47D-16 6.67D-09 XBig12= 3.93D-01 2.58D-01.
     12 vectors produced by pass  2 Test12= 7.47D-16 6.67D-09 XBig12= 5.55D-03 3.11D-02.
     12 vectors produced by pass  3 Test12= 7.47D-16 6.67D-09 XBig12= 2.83D-05 2.72D-03.
     12 vectors produced by pass  4 Test12= 7.47D-16 6.67D-09 XBig12= 1.17D-07 1.57D-04.
     12 vectors produced by pass  5 Test12= 7.47D-16 6.67D-09 XBig12= 7.26D-10 9.52D-06.
      5 vectors produced by pass  6 Test12= 7.47D-16 6.67D-09 XBig12= 1.89D-12 4.84D-07.
      1 vectors produced by pass  7 Test12= 7.47D-16 6.67D-09 XBig12= 5.68D-15 2.43D-08.
 InvSVY:  IOpt=1 It=  1 EMax= 8.88D-16
 Solved reduced A of dimension    78 with    12 vectors.
 Isotropic polarizability for W=    0.085645       10.98 Bohr**3.
 PxSclF for G(T1ab):  IOpCl= 0 ISclPx=1 IMOff=     0 NMtTot=    36 NTT=     253 IRwP= 19995     0 IPTmp= 19978     0 ScalPx= 6.13D+01
 FoFJK:  IHMeth= 1 ICntrl=    4100 DoSepK=F KAlg= 0 I1Cent=   0 FoldK=F
 IRaf=         1 NMat=   3 IRICut=       1 DoRegI=T DoRafI=F ISym2E= 0.
 End of Minotr F.D. properties on file   721 Mask=       B NFrqRd=     1 NDeriv=     1 ND12= 1 LenFil=      39:
 Frequencies=    0.085645
 Property number 1 -- Alpha(-w,w) frequency  1    0.085645:
                 1             2             3 
      1   0.109885D+02  0.104931D-01  0.000000D+00
      2   0.104931D-01  0.178800D+02  0.000000D+00
      3   0.000000D+00  0.000000D+00  0.492357D+01
 Property number 2 -- FD Optical Rotation Tensor frequency  1    0.085645:
                 1             2             3 
      1   0.000000D+00  0.000000D+00  0.847116D+00
      2   0.000000D+00  0.000000D+00 -0.307914D-01
      3   0.828820D+01 -0.360955D-02  0.000000D+00
 Property number 4 -- D-Q polarizability frequency  1    0.085645:
                 1             2             3 
      1  -0.801805D-01  0.234480D+01  0.000000D+00
      2   0.795888D-01  0.189459D+01  0.000000D+00
      3   0.591718D-03 -0.423939D+01  0.000000D+00
      4   0.209472D+02  0.605541D-01  0.000000D+00
      5   0.000000D+00  0.000000D+00 -0.124032D-02
      6   0.000000D+00  0.000000D+00  0.190037D+01
 End of Minotr F.D. properties on file   722 Mask=       B NFrqRd=     1 NDeriv=    12 ND12= 1 LenFil=     435:
 Frequencies=    0.085645
 Property number 1 -- Alpha(-w,w) derivatives, frequency  1    0.085645:
                 1             2             3             4             5 
      1   0.480911D-01 -0.113979D+01  0.000000D+00 -0.742884D+01 -0.186830D-01
      2  -0.113979D+01 -0.155238D-01  0.000000D+00 -0.186830D-01  0.820601D+01
      3   0.000000D+00  0.000000D+00  0.579175D-02  0.000000D+00  0.000000D+00
                 6             7             8             9            10 
      1   0.000000D+00  0.000000D+00  0.000000D+00  0.790978D-02  0.695060D+01
      2   0.000000D+00  0.000000D+00  0.000000D+00  0.413138D+01  0.277031D+01
      3   0.319080D+00  0.790978D-02  0.413138D+01  0.000000D+00  0.000000D+00
                11            12            13            14            15 
      1   0.277031D+01  0.000000D+00  0.257900D+01  0.261267D+01  0.000000D+00
      2   0.107272D+01  0.000000D+00  0.261267D+01  0.269869D+01  0.000000D+00
      3   0.000000D+00  0.375695D+00  0.000000D+00  0.000000D+00  0.165387D+00
                16            17            18            19            20 
      1   0.000000D+00  0.000000D+00  0.172885D+01 -0.699808D+01  0.275275D+01
      2   0.000000D+00  0.000000D+00  0.465604D+00  0.275275D+01 -0.105660D+01
      3   0.172885D+01  0.465604D+00  0.000000D+00  0.000000D+00  0.000000D+00
                21            22            23            24            25 
      1   0.000000D+00  0.256735D+01 -0.260166D+01  0.000000D+00  0.000000D+00
      2   0.000000D+00 -0.260166D+01  0.266102D+01  0.000000D+00  0.000000D+00
      3  -0.378083D+00  0.000000D+00  0.000000D+00  0.159347D+00 -0.173661D+01
                26            27            28            29            30 
      1   0.000000D+00 -0.173661D+01 -0.611051D-03 -0.438327D+01  0.000000D+00
      2   0.000000D+00  0.458021D+00 -0.438327D+01 -0.596224D-03  0.000000D+00
      3   0.458021D+00  0.000000D+00  0.000000D+00  0.000000D+00 -0.340376D-02
                31            32            33            34            35 
      1   0.228249D+01  0.767873D-02  0.000000D+00  0.000000D+00  0.000000D+00
      2   0.767873D-02 -0.135657D+02  0.000000D+00  0.000000D+00  0.000000D+00
      3   0.000000D+00  0.000000D+00 -0.643814D+00 -0.143447D-03 -0.505500D+01
                36 
      1  -0.143447D-03
      2  -0.505500D+01
      3   0.000000D+00
 Property number 2 -- FD Optical Rotation Tensor derivatives, frequency  1    0.085645:
                 1             2             3             4             5 
      1   0.000000D+00  0.000000D+00 -0.225230D-01  0.000000D+00  0.000000D+00
      2   0.000000D+00  0.000000D+00 -0.192590D+02  0.000000D+00  0.000000D+00
      3   0.537186D-01 -0.115509D+02  0.000000D+00 -0.104579D+01  0.153574D-01
                 6             7             8             9            10 
      1   0.515996D+01 -0.134409D-01  0.370300D+01  0.000000D+00  0.000000D+00
      2  -0.101445D+00 -0.344150D+02 -0.148006D+00  0.000000D+00  0.000000D+00
      3   0.000000D+00  0.000000D+00  0.000000D+00  0.178212D-02  0.735744D+01
                11            12            13            14            15 
      1   0.000000D+00 -0.177557D+01  0.000000D+00  0.000000D+00 -0.117403D+00
      2   0.000000D+00  0.785576D+01  0.000000D+00  0.000000D+00  0.155293D+01
      3   0.155021D+01  0.000000D+00  0.804986D+00  0.862905D+00  0.000000D+00
                16            17            18            19            20 
      1  -0.260019D+01  0.311526D+00  0.000000D+00  0.000000D+00  0.000000D+00
      2   0.980618D+01  0.560493D-01  0.000000D+00  0.000000D+00  0.000000D+00
      3   0.000000D+00  0.000000D+00  0.260022D+01 -0.740873D+01  0.153446D+01
                21            22            23            24            25 
      1   0.178005D+01  0.000000D+00  0.000000D+00 -0.102651D+00  0.261966D+01
      2   0.791910D+01  0.000000D+00  0.000000D+00 -0.147472D+01  0.975378D+01
      3   0.000000D+00  0.779953D+00 -0.874502D+00  0.000000D+00  0.000000D+00
                26            27            28            29            30 
      1   0.310315D+00  0.000000D+00  0.000000D+00  0.000000D+00  0.180478D-01
      2   0.558587D-01  0.000000D+00  0.000000D+00  0.000000D+00  0.594589D+01
      3   0.000000D+00 -0.261962D+01 -0.767370D-02 -0.473708D+00  0.000000D+00
                31            32            33            34            35 
      1   0.000000D+00  0.000000D+00 -0.740169D+01 -0.778252D-03  0.461513D+01
      2   0.000000D+00  0.000000D+00  0.232344D-01  0.936079D+01  0.308510D-01
      3   0.495510D+01  0.148602D-02  0.000000D+00  0.000000D+00  0.000000D+00
                36 
      1   0.000000D+00
      2   0.000000D+00
      3   0.176168D-01
 Property number 4 -- D-Q polarizability derivatives, frequency  1    0.085645:
                 1             2             3             4             5 
      1  -0.591784D+01  0.339896D-01  0.000000D+00  0.613196D-01 -0.662870D+01
      2  -0.407075D+01 -0.479876D-01  0.000000D+00 -0.688373D-01 -0.290574D+01
      3   0.998859D+01  0.139980D-01  0.000000D+00  0.751777D-02  0.953444D+01
      4   0.476883D-01 -0.653483D+01  0.000000D+00 -0.170553D+02 -0.843209D-01
      5   0.000000D+00  0.000000D+00  0.604146D+00  0.000000D+00  0.000000D+00
      6   0.000000D+00  0.000000D+00  0.688399D-04  0.000000D+00  0.000000D+00
                 6             7             8             9            10 
      1   0.000000D+00  0.000000D+00  0.000000D+00 -0.467457D+01  0.101832D+02
      2   0.000000D+00  0.000000D+00  0.000000D+00 -0.789059D+01 -0.251206D+01
      3   0.000000D+00  0.000000D+00  0.000000D+00  0.125652D+02 -0.767119D+01
      4   0.000000D+00  0.000000D+00  0.000000D+00 -0.473265D-02  0.153617D+02
      5  -0.465642D-02 -0.292355D+01 -0.172060D-01  0.000000D+00  0.000000D+00
      6   0.101707D+01  0.382167D-02  0.571821D+01  0.000000D+00  0.000000D+00
                11            12            13            14            15 
      1   0.385076D+01  0.000000D+00 -0.232760D+01 -0.685376D+00  0.000000D+00
      2  -0.390778D+00  0.000000D+00  0.645787D+01  0.601321D+01  0.000000D+00
      3  -0.345999D+01  0.000000D+00 -0.413028D+01 -0.532784D+01  0.000000D+00
      4   0.755417D+01  0.000000D+00  0.103260D+02  0.956915D+01  0.000000D+00
      5   0.000000D+00  0.123592D+01  0.000000D+00  0.000000D+00  0.425648D+00
      6   0.000000D+00  0.108537D+01  0.000000D+00  0.000000D+00  0.343778D+00
                16            17            18            19            20 
      1   0.000000D+00  0.000000D+00  0.132868D+01  0.103139D+02 -0.386153D+01
      2   0.000000D+00  0.000000D+00  0.187531D+01 -0.263476D+01  0.425180D+00
      3   0.000000D+00  0.000000D+00 -0.320399D+01 -0.767918D+01  0.343635D+01
      4   0.000000D+00  0.000000D+00  0.544409D+01 -0.153915D+02  0.749411D+01
      5   0.623266D+01  0.189541D+01  0.000000D+00  0.000000D+00  0.000000D+00
      6   0.544566D+01  0.210674D+01  0.000000D+00  0.000000D+00  0.000000D+00
                21            22            23            24            25 
      1   0.000000D+00  0.229339D+01 -0.608413D+00  0.000000D+00  0.000000D+00
      2   0.000000D+00 -0.640219D+01  0.587893D+01  0.000000D+00  0.000000D+00
      3   0.000000D+00  0.410881D+01 -0.527052D+01  0.000000D+00  0.000000D+00
      4   0.000000D+00  0.103282D+02 -0.949271D+01  0.000000D+00  0.000000D+00
      5   0.124528D+01  0.000000D+00  0.000000D+00 -0.415417D+00  0.625899D+01
      6  -0.108429D+01  0.000000D+00  0.000000D+00  0.335751D+00 -0.543766D+01
                26            27            28            29            30 
      1   0.000000D+00  0.136774D+01  0.719846D-01 -0.923028D-02  0.000000D+00
      2   0.000000D+00  0.182277D+01  0.189190D+01  0.659063D-02  0.000000D+00
      3   0.000000D+00 -0.319051D+01 -0.196389D+01  0.263965D-02  0.000000D+00
      4   0.000000D+00 -0.543923D+01 -0.738724D-02  0.936649D+01  0.000000D+00
      5  -0.186682D+01  0.000000D+00  0.000000D+00  0.000000D+00  0.183823D+01
      6   0.206881D+01  0.000000D+00  0.000000D+00  0.000000D+00 -0.114575D-02
                31            32            33            34            35 
      1  -0.341051D-01 -0.399748D+01  0.000000D+00  0.000000D+00  0.000000D+00
      2   0.271482D-01  0.148535D+02  0.000000D+00  0.000000D+00  0.000000D+00
      3   0.695694D-02 -0.108560D+02  0.000000D+00  0.000000D+00  0.000000D+00
      4   0.738959D+01  0.183729D-01  0.000000D+00  0.000000D+00  0.000000D+00
      5   0.000000D+00  0.000000D+00 -0.557453D-02  0.142040D+01 -0.894890D-03
      6   0.000000D+00  0.000000D+00  0.322697D+01 -0.132995D-02  0.798619D+01
                36 
      1  -0.130424D+01
      2   0.910131D+00
      3   0.394111D+00
      4  -0.123398D-03
      5   0.000000D+00
      6   0.000000D+00
 End of Minotr F.D. properties file   788 does not exist.

 **********************************************************************

            Population analysis using the SCF density.

 **********************************************************************

 Orbital symmetries:
       Occupied  (A') (A') (A') (A') (A') (A') (A") (A')
       Virtual   (A") (A') (A') (A') (A") (A') (A') (A') (A') (A')
                 (A") (A') (A') (A')
 The electronic state is 1-A'.
 Alpha  occ. eigenvalues --  -20.48231 -11.28166  -1.38160  -0.87703  -0.69750
 Alpha  occ. eigenvalues --   -0.61810  -0.50309  -0.44070
 Alpha virt. eigenvalues --    0.13309   0.27827   0.36642   0.44280   0.93771
 Alpha virt. eigenvalues --    0.98973   1.01588   1.12899   1.30065   1.58116
 Alpha virt. eigenvalues --    1.86710   1.93210   1.97891   3.28240
          Condensed to atoms (all electrons):
               1          2          3          4
     1  C    4.769258   0.334016   0.334848   0.468009
     2  H    0.334016   0.584993  -0.062097  -0.050362
     3  H    0.334848  -0.062097   0.584795  -0.050825
     4  O    0.468009  -0.050362  -0.050825   8.113777
 Mulliken charges:
               1
     1  C    0.093868
     2  H    0.193451
     3  H    0.193280
     4  O   -0.480599
 Sum of Mulliken charges =  -0.00000
 Mulliken charges with hydrogens summed into heavy atoms:
               1
     1  C    0.480599
     4  O   -0.480599
 APT charges:
               1
     1  C    0.524576
     2  H   -0.004876
     3  H   -0.005234
     4  O   -0.514467
 Sum of APT charges =  -0.00000
 APT charges with hydrogens summed into heavy atoms:
               1
     1  C    0.514467
     4  O   -0.514467
 Electronic spatial extent (au):  <R**2>=             61.4444
 Charge=             -0.0000 electrons
 Dipole moment (field-independent basis, Debye):
    X=              0.0004    Y=              2.8390    Z=              0.0000  Tot=              2.8390
 Quadrupole moment (field-independent basis, Debye-Ang):
   XX=            -11.2753   YY=            -12.1593   ZZ=            -11.6535
   XY=              0.0047   XZ=             -0.0000   YZ=             -0.0000
 Traceless Quadrupole moment (field-independent basis, Debye-Ang):
   XX=              0.4207   YY=             -0.4633   ZZ=              0.0425
   XY=              0.0047   XZ=             -0.0000   YZ=             -0.0000
 Octapole moment (field-independent basis, Debye-Ang**2):
  XXX=             -0.0043  YYY=             -0.3111  ZZZ=             -0.0000  XYY=              0.0078
  XXY=              0.3273  XXZ=              0.0000  XZZ=              0.0007  YZZ=             -1.0631
  YYZ=              0.0000  XYZ=             -0.0000
 Hexadecapole moment (field-independent basis, Debye-Ang**3):
 XXXX=            -15.8676 YYYY=            -44.1014 ZZZZ=             -9.3060 XXXY=             -0.0039
 XXXZ=              0.0000 YYYX=              0.0128 YYYZ=             -0.0000 ZZZX=              0.0000
 ZZZY=             -0.0000 XXYY=             -9.2986 XXZZ=             -4.4519 YYZZ=             -8.9431
 XXYZ=             -0.0000 YYXZ=             -0.0000 ZZXY=             -0.0007
 N-N= 3.059827771806D+01 E-N=-3.278387562987D+02  KE= 1.127713537847D+02
 Symmetry A'   KE= 1.094707917202D+02
 Symmetry A"   KE= 3.300562064505D+00
  Exact polarizability:   0.000   0.000   0.000   0.000   0.000   0.000
 Approx polarizability:   8.037   0.012  17.940  -0.000   0.000   3.955
 Calling FoFJK, ICntrl=    100127 FMM=F ISym2X=1 I1Cent= 0 IOpClX= 0 NMat=1 NMatS=1 NMatT=0.
 Translational dAlpha, IFr= 1:
                x                       y                       z
         lhs       rhs           lhs       rhs           lhs       rhs
 1     -0.0000    0.0000        0.0000    0.0000        0.0000    0.0000
 2      0.0000    0.0000        0.0000    0.0000       -0.0000    0.0000
 3      0.0000    0.0000       -0.0000    0.0000        0.0000    0.0000
 4      0.0000    0.0000        0.0000    0.0000        0.0000    0.0000
 5     -0.0000    0.0000        0.0000    0.0000       -0.0000    0.0000
 6      0.0000    0.0000        0.0000    0.0000        0.0000    0.0000
 Translational dG, IFr= 1:
                x                       y                       z
         lhs       rhs           lhs       rhs           lhs       rhs
 1     -0.0000    0.0000        0.0000    0.0000        0.0052    0.0052
 2     -0.0000   -0.0000       -0.0000   -0.0000        3.4457    3.4457
 3     -0.0052   -0.0052        3.0325    3.0325       -0.0000    0.0000
 4      0.0000    0.0000       -0.0000    0.0000       -0.0052   -0.0052
 5     -6.4782   -6.4782        0.0052    0.0052       -0.0000    0.0000
 6     -0.0000   -0.0000       -0.0000   -0.0000        0.0000    0.0000
 Translational dA, IFr= 1:
                x                       y                       z
         lhs       rhs           lhs       rhs           lhs       rhs
 1     -0.0000    0.0000       -0.0000   -0.0000        0.0157    0.0157
 2      0.0000    0.0000       -0.0000    0.0000        0.0157    0.0157
 3      0.0000    0.0000       -0.0000   -0.0000        0.0000    0.0000
 4     -0.0000   -0.0000       -0.0000   -0.0000       10.3372   10.3372
 5     -0.0157   -0.0157        9.0974    9.0974        0.0000    0.0000
 6    -19.4346  -19.4346        0.0157    0.0157        0.0000    0.0000
 Rotational dAlpha, IFr= 1:
                x                       y                       z
         lhs       rhs           lhs       rhs           lhs       rhs
 1      0.0000    0.0000        0.0000   -0.0000       -0.0210   -0.0210
 2     -0.0000    0.0000       -0.0000    0.0000      -13.7829  -13.7829
 3      0.0210    0.0210      -12.1298  -12.1298       -0.0000   -0.0000
 4      0.0000   -0.0000        0.0000    0.0000        0.0210    0.0210
 5     25.9128   25.9128       -0.0210   -0.0210       -0.0000   -0.0000
 6      0.0000    0.0000        0.0000    0.0000        0.0000    0.0000
 Rotational dG, IFr= 1:
                x                       y                       z
         lhs       rhs           lhs       rhs           lhs       rhs
 1     -0.0000    0.0000        9.1353    9.1353       -0.0000   -0.0000
 2     -9.1353   -9.1353       -0.0344   -0.0344        0.0000    0.0000
 3      0.0000    0.0000        0.0000   -0.0000        0.0344    0.0344
 4      0.0344    0.0344        0.0000    0.0000       -0.0000    0.0000
 5     -0.0000   -0.0000       -0.0000   -0.0000        9.1353    9.1353
 6     -0.0344   -0.0344       -9.1353   -9.1353        0.0000    0.0000
 Rotational dA, IFr= 1:
                x                       y                       z
         lhs       rhs           lhs       rhs           lhs       rhs
 1      0.0790    0.0790      -19.0469  -19.0469       -0.0000    0.0000
 2      0.0618    0.0618       -6.5842   -6.5842       -0.0000    0.0000
 3      0.0618    0.0618      -19.0469  -19.0469       -0.0000    0.0000
 4    -12.4627  -12.4627        0.0172    0.0172       -0.0000    0.0000
 5      0.0000   -0.0000        0.0000   -0.0000       -0.0172   -0.0172
 6     -0.0000   -0.0000       -0.0000    0.0000       12.4627   12.4627
 Full mass-weighted force constant matrix:
 Low frequencies --- -171.6854   -0.0007   -0.0005    0.0010  260.2487  279.9023
 Low frequencies --- 1282.0943 1339.1604 1548.4197
 Diagonal vibrational polarizability:
        0.3344269       0.6863943       0.1812572
 Harmonic frequencies (cm**-1), IR intensities (KM/Mole), Raman scattering
 activities (A**4/AMU), depolarization ratios for plane and unpolarized
 incident light, reduced masses (AMU), force constants (mDyne/A),
 Raman invariants Alpha2 = alpha**2, Beta2 = beta(alpha)**2 (A**4/AMU)
 ROA invariants AlphaG = alphaG', Gamma2 = beta(G')**2, Delta2 = beta(A)**2, (10**4 A**5/AMU)
 Far-From-Resonance Raman intensities (K), ROA intensites (10**4 K), CID=(ROA/Raman)*10**4
    Raman1;ROA1;CID1 =ICPu/SCPu(180), Raman2;ROA2;CID2 =ICPd/SCPd(90)
    Raman3;ROA3;CID3 =DCPI(180) RC180 = degree of circularity
 and normal coordinates:
 Incident light (cm**-1):   18796.99
                      1                      2                      3
                     A"                     A'                     A'
 Frequencies --   1279.9047              1337.9260              1548.4195
 Red. masses --      1.3348                 1.3041                 2.9470
 Frc consts  --      1.2883                 1.3753                 4.1630
 IR Inten    --     11.0336                11.8913                50.4623
 RamAct Fr= 1--      0.0681                 6.1822                25.3142
  Dep-P Fr= 1--      0.7500                 0.7499                 0.4633
  Dep-U Fr= 1--      0.8571                 0.8571                 0.6332
 Alpha2 Fr= 1--      0.0000                 0.0000                 0.1470
 Beta2  Fr= 1--      0.0097                 0.8831                 2.6716
 AlphaG Fr= 1--      0.0000                -0.0000                -0.0000
 Gamma2 Fr= 1--      0.0000                -0.0000                -0.0000
 Delta2 Fr= 1--     -0.0000                 0.0000                -0.0000
 Raman1 Fr= 1--       0.272                 24.729                101.257
 ROA1   Fr= 1--       0.000                 -0.000                 -0.000
 CID1   Fr= 1--       0.000                 -0.000                 -0.000
 Raman2 Fr= 1--       0.117                 10.597                 32.059
 ROA2   Fr= 1--       0.000                 -0.000                  0.000
 CID2   Fr= 1--       0.000                 -0.000                  0.000
 Raman3 Fr= 1--       0.233                 21.194                 64.118
 ROA3   Fr= 1--       0.000                 -0.000                 -0.000
 CID3   Fr= 1--       0.000                 -0.000                 -0.000
 RC180  Fr= 1--       0.714                  0.714                  0.266
  Atom  AN      X      Y      Z        X      Y      Z        X      Y      Z
     1   6     0.00   0.00  -0.17     0.14   0.00   0.00     0.00  -0.27  -0.00
     2   1    -0.00   0.00   0.70    -0.25   0.66  -0.00     0.19  -0.62   0.00
     3   1    -0.00  -0.00   0.70    -0.24  -0.65  -0.00    -0.20  -0.63   0.00
     4   8    -0.00  -0.00   0.04    -0.07  -0.00  -0.00    -0.00   0.28   0.00
                      4                      5                      6
                     A'                     A'                     A'
 Frequencies --   1717.9022              3288.8988              3411.2493
 Red. masses --      1.4267                 1.0451                 1.1203
 Frc consts  --      2.4808                 6.6606                 7.6808
 IR Inten    --     10.5434                 9.5818                67.3121
 RamAct Fr= 1--      1.4865               119.9701                41.7021
  Dep-P Fr= 1--      0.1772                 0.1971                 0.7500
  Dep-U Fr= 1--      0.3010                 0.3293                 0.8571
 Alpha2 Fr= 1--      0.0214                 1.6417                 0.0000
 Beta2  Fr= 1--      0.0746                 6.5849                 5.9574
 AlphaG Fr= 1--      0.0000                 0.0000                 0.0000
 Gamma2 Fr= 1--      0.0000                 0.0000                 0.0000
 Delta2 Fr= 1--     -0.0000                -0.0000                -0.0000
 Raman1 Fr= 1--       5.946                479.880                166.808
 ROA1   Fr= 1--       0.000                  0.000                  0.000
 CID1   Fr= 1--       0.000                  0.000                  0.000
 Raman2 Fr= 1--       0.895                 79.019                 71.489
 ROA2   Fr= 1--       0.000                  0.000                  0.000
 CID2   Fr= 1--       0.000                  0.000                  0.000
 Raman3 Fr= 1--       1.790                158.038                142.978
 ROA3   Fr= 1--       0.000                  0.000                  0.000
 CID3   Fr= 1--       0.000                  0.000                  0.000
 RC180  Fr= 1--      -0.398                 -0.341                  0.714
  Atom  AN      X      Y      Z        X      Y      Z        X      Y      Z
     1   6    -0.00   0.18  -0.00    -0.00   0.06   0.00    -0.10  -0.00  -0.00
     2   1     0.41  -0.56   0.00    -0.61  -0.34  -0.00     0.61   0.36   0.00
     3   1    -0.41  -0.56   0.00     0.62  -0.34  -0.00     0.61  -0.35   0.00
     4   8    -0.00  -0.06   0.00    -0.00  -0.00  -0.00    -0.00   0.00   0.00

 -------------------
 - Thermochemistry -
 -------------------
 Temperature   298.150 Kelvin.  Pressure   1.00000 Atm.
 Atom     1 has atomic number  6 and mass  12.00000
 Atom     2 has atomic number  1 and mass   1.00783
 Atom     3 has atomic number  1 and mass   1.00783
 Atom     4 has atomic number  8 and mass  15.99491
 Molecular mass:    30.01056 amu.
 Principal axes and moments of inertia in atomic units:
                           1         2         3
     Eigenvalues --     6.17365  49.34611  55.51976
           X            0.00011   1.00000   0.00000
           Y            1.00000  -0.00011   0.00000
           Z            0.00000   0.00000   1.00000
 This molecule is an asymmetric top.
 Rotational symmetry number  1.
 Rotational temperatures (Kelvin)     14.02960     1.75523     1.56005
 Rotational constants (GHZ):         292.32978    36.57312    32.50629
 Zero-point vibrational energy      75270.8 (Joules/Mol)
                                   17.99016 (Kcal/Mol)
 Vibrational temperatures:   1841.50  1924.97  2227.83  2471.68  4731.99
          (Kelvin)           4908.02
 
 Zero-point correction=                           0.028669 (Hartree/Particle)
 Thermal correction to Energy=                    0.031529
 Thermal correction to Enthalpy=                  0.032474
 Thermal correction to Gibbs Free Energy=         0.006971
 Sum of electronic and zero-point Energies=           -113.188740
 Sum of electronic and thermal Energies=              -113.185880
 Sum of electronic and thermal Enthalpies=            -113.184936
 Sum of electronic and thermal Free Energies=         -113.210438
 
                     E (Thermal)             CV                S
                      KCal/Mol        Cal/Mol-Kelvin    Cal/Mol-Kelvin
 Total                   19.785              6.348             53.674
 Electronic               0.000              0.000              0.000
 Translational            0.889              2.981             36.130
 Rotational               0.889              2.981             17.477
 Vibrational             18.008              0.386              0.067
                       Q            Log10(Q)             Ln(Q)
 Total Bot       0.621459D-03         -3.206588         -7.383441
 Total V=0       0.955600D+10          9.980276         22.980435
 Vib (Bot)       0.653248D-13        -13.184922        -30.359404
 Vib (V=0)       0.100448D+01          0.001942          0.004472
 Electronic      0.100000D+01          0.000000          0.000000
 Translational   0.646199D+07          6.810366         15.681448
 Rotational      0.147220D+04          3.167968          7.294515
 ***** Axes restored to original set *****
 -------------------------------------------------------------------
 Center     Atomic                   Forces (Hartrees/Bohr)
 Number     Number              X              Y              Z
 -------------------------------------------------------------------
      1        6           0.043652298    0.077333575    0.000000000
      2        1          -0.002080466   -0.007730651   -0.000000000
      3        1          -0.005776435   -0.006270344   -0.000000000
      4        8          -0.035795398   -0.063332579   -0.000000000
 -------------------------------------------------------------------
 Cartesian Forces:  Max     0.077333575 RMS     0.033310542
 End of FrcOut F.D. properties on file   721 Mask=       B NFrqRd=     1 NDeriv=     1 ND12= 1 LenFil=      39:
 Frequencies=    0.085645
 Property number 1 -- Alpha(-w,w) frequency  1    0.085645:
                 1             2             3 
      1   0.126905D+02  0.297196D+01  0.000000D+00
      2   0.297196D+01  0.161780D+02  0.000000D+00
      3   0.000000D+00  0.000000D+00  0.492357D+01
 Property number 2 -- FD Optical Rotation Tensor frequency  1    0.085645:
                 1             2             3 
      1   0.000000D+00  0.000000D+00 -0.749804D+00
      2   0.000000D+00  0.000000D+00  0.395408D+00
      3  -0.718778D+01  0.412675D+01  0.000000D+00
 Property number 4 -- D-Q polarizability frequency  1    0.085645:
                 1             2             3 
      1  -0.168140D+02  0.714804D+01  0.000000D+00
      2   0.147011D+02 -0.108234D+02  0.000000D+00
      3   0.211293D+01  0.367531D+01  0.000000D+00
      4  -0.897106D+01  0.541527D+01  0.000000D+00
      5   0.000000D+00  0.000000D+00 -0.948001D+00
      6   0.000000D+00  0.000000D+00 -0.164703D+01
 End of FrcOut F.D. properties on file   722 Mask=       B NFrqRd=     1 NDeriv=    12 ND12= 1 LenFil=     435:
 Frequencies=    0.085645
 Property number 1 -- Alpha(-w,w) derivatives, frequency  1    0.085645:
                 1             2             3             4             5 
      1   0.264118D+01 -0.289671D+01  0.000000D+00  0.255441D+01 -0.613667D+01
      2  -0.289671D+01 -0.300020D+01  0.000000D+00 -0.613667D+01 -0.324446D+01
      3   0.000000D+00  0.000000D+00 -0.153971D+00  0.000000D+00  0.000000D+00
                 6             7             8             9            10 
      1   0.000000D+00  0.000000D+00  0.000000D+00 -0.205174D+01  0.251059D+01
      2   0.000000D+00  0.000000D+00  0.000000D+00 -0.358590D+01 -0.278121D+01
      3  -0.279533D+00 -0.205174D+01 -0.358590D+01  0.000000D+00  0.000000D+00
                11            12            13            14            15 
      1  -0.278121D+01  0.000000D+00 -0.184802D+01  0.305579D+01  0.000000D+00
      2   0.181596D+01  0.000000D+00  0.305579D+01 -0.672570D+01  0.000000D+00
      3   0.000000D+00  0.243323D+00  0.000000D+00  0.000000D+00 -0.330596D+00
                16            17            18            19            20 
      1   0.000000D+00  0.000000D+00  0.126693D+01 -0.926157D+01  0.351175D+00
      2   0.000000D+00  0.000000D+00 -0.126514D+01  0.351175D+00 -0.327162D+00
      3   0.126693D+01 -0.126514D+01  0.000000D+00  0.000000D+00  0.000000D+00
                21            22            23            24            25 
      1   0.000000D+00 -0.257959D+00 -0.175914D+01  0.000000D+00  0.000000D+00
      2   0.000000D+00 -0.175914D+01 -0.261592D+00  0.000000D+00  0.000000D+00
      3  -0.407203D+00  0.000000D+00  0.000000D+00  0.502367D-01 -0.173389D+01
                26            27            28            29            30 
      1   0.000000D+00 -0.173389D+01  0.410980D+01  0.532674D+01  0.000000D+00
      2   0.000000D+00  0.468216D+00  0.532674D+01  0.151140D+01  0.000000D+00
      3   0.468216D+00  0.000000D+00  0.000000D+00  0.000000D+00  0.317851D+00
                31            32            33            34            35 
      1  -0.448438D+00  0.484001D+01  0.000000D+00  0.000000D+00  0.000000D+00
      2   0.484001D+01  0.102318D+02  0.000000D+00  0.000000D+00  0.000000D+00
      3   0.000000D+00  0.000000D+00  0.559892D+00  0.251870D+01  0.438283D+01
                36 
      1   0.251870D+01
      2   0.438283D+01
      3   0.000000D+00
 Property number 2 -- FD Optical Rotation Tensor derivatives, frequency  1    0.085645:
                 1             2             3             4             5 
      1   0.000000D+00  0.000000D+00 -0.604892D+01  0.000000D+00  0.000000D+00
      2   0.000000D+00  0.000000D+00 -0.157243D+02  0.000000D+00  0.000000D+00
      3  -0.548622D+01 -0.840676D+01  0.000000D+00  0.209838D+01  0.541714D+01
                 6             7             8             9            10 
      1   0.869465D+01 -0.132213D+02  0.113865D+02  0.000000D+00  0.000000D+00
      2   0.617289D+01 -0.267315D+02  0.133828D+02  0.000000D+00  0.000000D+00
      3   0.000000D+00  0.000000D+00  0.000000D+00 -0.178212D-02 -0.472744D+01
                11            12            13            14            15 
      1   0.000000D+00  0.429227D+01  0.000000D+00  0.000000D+00 -0.347671D+01
      2   0.000000D+00  0.449645D+01  0.000000D+00  0.000000D+00 -0.406962D+01
      3   0.377121D+01  0.000000D+00  0.302598D+01 -0.349290D+01  0.000000D+00
                16            17            18            19            20 
      1   0.631172D+01 -0.334811D+01  0.000000D+00  0.000000D+00  0.000000D+00
      2   0.614654D+01 -0.376758D+01  0.000000D+00  0.000000D+00  0.000000D+00
      3   0.000000D+00  0.000000D+00 -0.260022D+01  0.678624D+01 -0.186309D+01
                21            22            23            24            25 
      1   0.240492D+01  0.000000D+00  0.000000D+00 -0.637251D+00  0.236478D+01
      2   0.738450D+01  0.000000D+00  0.000000D+00 -0.271025D+01  0.836261D+01
      3   0.000000D+00 -0.261760D+01  0.149699D+01  0.000000D+00  0.000000D+00
                26            27            28            29            30 
      1  -0.108086D+01  0.000000D+00  0.000000D+00  0.000000D+00 -0.648268D+00
      2  -0.504030D+01  0.000000D+00  0.000000D+00  0.000000D+00  0.630511D+01
      3   0.000000D+00  0.261962D+01  0.194145D+01 -0.159034D+01  0.000000D+00
                31            32            33            34            35 
      1   0.000000D+00  0.000000D+00 -0.704248D+01  0.603079D+01  0.113143D+01
      2   0.000000D+00  0.000000D+00  0.606986D+00  0.587709D+01 -0.606086D+01
      3   0.383847D+01 -0.193526D+01  0.000000D+00  0.000000D+00  0.000000D+00
                36 
      1   0.000000D+00
      2   0.000000D+00
      3  -0.176168D-01
 Property number 4 -- D-Q polarizability derivatives, frequency  1    0.085645:
                 1             2             3             4             5 
      1  -0.143571D+02 -0.645226D+00  0.000000D+00 -0.975069D+01  0.322523D+01
      2   0.449061D+01  0.850087D+00  0.000000D+00  0.994907D+01 -0.128817D+02
      3   0.986654D+01 -0.204861D+00  0.000000D+00 -0.198381D+00  0.965649D+01
      4  -0.409934D+01  0.503103D-01  0.000000D+00 -0.522516D+01  0.652414D+01
      5   0.000000D+00  0.000000D+00  0.708652D+00  0.000000D+00  0.000000D+00
      6   0.000000D+00  0.000000D+00  0.177184D+00  0.000000D+00  0.000000D+00
                 6             7             8             9            10 
      1   0.000000D+00  0.000000D+00  0.000000D+00 -0.546897D+01 -0.973315D+00
      2   0.000000D+00  0.000000D+00  0.000000D+00 -0.709618D+01  0.478354D+01
      3   0.000000D+00  0.000000D+00  0.000000D+00  0.125652D+02 -0.381022D+01
      4   0.000000D+00  0.000000D+00  0.000000D+00 -0.138700D+01 -0.737309D+01
      5   0.181909D+00 -0.772133D+00  0.374729D+01  0.000000D+00  0.000000D+00
      6   0.912566D+00  0.372626D+01  0.356679D+01  0.000000D+00  0.000000D+00
                11            12            13            14            15 
      1   0.989872D-01  0.000000D+00  0.543787D+01 -0.125589D+02  0.000000D+00
      2  -0.268678D+01  0.000000D+00 -0.869596D+01  0.217477D+02  0.000000D+00
      3   0.258779D+01  0.000000D+00  0.325809D+01 -0.918880D+01  0.000000D+00
      4   0.876738D+01  0.000000D+00  0.453487D+01 -0.776843D+01  0.000000D+00
      5   0.000000D+00  0.361623D+00  0.000000D+00  0.000000D+00 -0.435904D+00
      6   0.000000D+00 -0.109563D+01  0.000000D+00  0.000000D+00  0.121807D+01
                16            17            18            19            20 
      1   0.000000D+00  0.000000D+00 -0.323949D+01  0.254217D+02 -0.479117D-01
      2   0.000000D+00  0.000000D+00  0.644349D+01 -0.150809D+02  0.570312D+00
      3   0.000000D+00  0.000000D+00 -0.320399D+01 -0.103408D+02 -0.522400D+00
      4   0.000000D+00  0.000000D+00 -0.250454D+01  0.820092D+01  0.156482D+01
      5   0.203677D+01 -0.185519D+01  0.000000D+00  0.000000D+00  0.000000D+00
      6  -0.540544D+01  0.630264D+01  0.000000D+00  0.000000D+00  0.000000D+00
                21            22            23            24            25 
      1   0.000000D+00 -0.530718D+00  0.418042D+01  0.000000D+00  0.000000D+00
      2   0.000000D+00  0.172557D+01 -0.157152D+01  0.000000D+00  0.000000D+00
      3   0.000000D+00 -0.119486D+01 -0.260891D+01  0.000000D+00  0.000000D+00
      4   0.000000D+00  0.860019D+01  0.153500D+01  0.000000D+00  0.000000D+00
      5   0.166736D+01  0.000000D+00  0.000000D+00 -0.349874D+00  0.837429D+01
      6   0.319004D+00  0.000000D+00  0.000000D+00 -0.863303D-01  0.181382D+01
                26            27            28            29            30 
      1   0.000000D+00  0.618042D+01  0.682939D+01  0.455676D+01  0.000000D+00
      2   0.000000D+00 -0.298991D+01 -0.265355D+01 -0.714922D+00  0.000000D+00
      3   0.000000D+00 -0.319051D+01 -0.417584D+01 -0.384184D+01  0.000000D+00
      4   0.000000D+00  0.293483D+01  0.624346D+01  0.579545D+01  0.000000D+00
      5  -0.175703D+01  0.000000D+00  0.000000D+00  0.000000D+00  0.218594D+01
      6  -0.464976D-01  0.000000D+00  0.000000D+00  0.000000D+00  0.599440D+00
                31            32            33            34            35 
      1   0.286224D+01 -0.563206D+01  0.000000D+00  0.000000D+00  0.000000D+00
      2   0.983919D+00  0.142762D+02  0.000000D+00  0.000000D+00  0.000000D+00
      3  -0.384616D+01 -0.864410D+01  0.000000D+00  0.000000D+00  0.000000D+00
      4   0.478060D+01  0.268124D+01  0.000000D+00  0.000000D+00  0.000000D+00
      5   0.000000D+00  0.000000D+00  0.603869D+00  0.305156D+01  0.283689D+01
      6   0.000000D+00  0.000000D+00  0.287926D+01  0.283732D+01  0.635503D+01
                36 
      1  -0.754335D+00
      2   0.360225D+00
      3   0.394111D+00
      4   0.956713D+00
      5   0.000000D+00
      6   0.000000D+00

 GradGradGradGradGradGradGradGradGradGradGradGradGradGradGradGradGradGrad
 Berny optimization.
 Search for a local minimum.
 Step number   1 out of a maximum of    2
 All quantities printed in internal units (Hartrees-Bohrs-Radians)
 Second derivative matrix not updated -- analytic derivatives used.
 The second derivative matrix:
                          X1        Y1        Z1        X2        Y2
           X1           0.78778
           Y1           0.04711   0.84415
           Z1           0.00000   0.00000   0.22467
           X2          -0.16539   0.14052   0.00000   0.15359
           Y2           0.13663  -0.27636  -0.00000  -0.13877   0.31831
           Z2           0.00000  -0.00000  -0.06561  -0.00000   0.00000
           X3          -0.36836   0.01975  -0.00000  -0.00990  -0.00417
           Y3           0.02383  -0.07286   0.00000   0.02818   0.00394
           Z3          -0.00000   0.00000  -0.06577   0.00000  -0.00000
           X4          -0.25403  -0.20738  -0.00000   0.02170   0.00632
           Y4          -0.20756  -0.49492  -0.00000  -0.02993  -0.04588
           Z4          -0.00000  -0.00000  -0.09329  -0.00000  -0.00000
                          Z2        X3        Y3        Z3        X4
           Z2           0.02132
           X3          -0.00000   0.39727
           Y3          -0.00000   0.00170   0.07484
           Z3           0.02241   0.00000   0.00000   0.02126
           X4           0.00000  -0.01902  -0.05371  -0.00000   0.25135
           Y4          -0.00000  -0.01728  -0.00591  -0.00000   0.25478
           Z4           0.02188  -0.00000  -0.00000   0.02210   0.00000
                          Y4        Z4
           Y4           0.54672
           Z4           0.00000   0.04932
 ITU=  0
     Eigenvalues ---    0.14263   0.16853   0.23047   0.43808   0.94597
     Eigenvalues ---    1.42765
 Angle between quadratic step and forces=  30.96 degrees.
 ClnCor:  largest displacement from symmetrization is 4.24D-17 for atom     1.
 Linear search not attempted -- first point.
 ClnCor:  largest displacement from symmetrization is 1.33D-15 for atom     3.
 B after Tr=     0.002209    0.004392   -0.000000
         Rot=    1.000000   -0.000000   -0.000000    0.000235 Ang=   0.03 deg.
 Variable       Old X    -DE/DX   Delta X   Delta X   Delta X     New X
                                 (Linear)    (Quad)   (Total)
    X1       -0.93992   0.04365   0.00000   0.03412   0.03700  -0.90291
    Y1        1.37525   0.07733   0.00000   0.06256   0.06737   1.44262
    Z1       -0.00000   0.00000   0.00000   0.00000   0.00000  -0.00000
    X2        0.06762  -0.00208   0.00000  -0.03546  -0.03343   0.03419
    Y2       -0.37786  -0.00773   0.00000  -0.00471  -0.00033  -0.37819
    Z2       -0.00000  -0.00000   0.00000  -0.00000  -0.00000  -0.00000
    X3       -2.96192  -0.00578   0.00000   0.01051   0.01335  -2.94858
    Y3        1.37525  -0.00627   0.00000  -0.03805  -0.03227   1.34297
    Z3       -0.00000  -0.00000   0.00000  -0.00000   0.00000  -0.00000
    X4        0.24502  -0.03580   0.00000  -0.02073  -0.01692   0.22810
    Y4        3.43703  -0.06333   0.00000  -0.03906  -0.03477   3.40226
    Z4        0.00000  -0.00000   0.00000  -0.00000  -0.00000   0.00000
         Item               Value     Threshold  Converged?
 Maximum Force            0.077334     0.000450     NO 
 RMS     Force            0.033311     0.000300     NO 
 Maximum Displacement     0.067373     0.001800     NO 
 RMS     Displacement     0.028491     0.001200     NO 
 Predicted change in Energy=-4.915171D-03
 GradGradGradGradGradGradGradGradGradGradGradGradGradGradGradGradGradGrad

 AllDun F.D. properties on file 20721 Mask=       B NFrqRd=     1 NDeriv=     1 ND12= 1 LenFil=      39:
 Frequencies=    0.085645
 Property number 1 -- Alpha(-w,w) frequency  1    0.085645:
                 1             2             3 
      1   0.126905D+02  0.297196D+01  0.000000D+00
      2   0.297196D+01  0.161780D+02  0.000000D+00
      3   0.000000D+00  0.000000D+00  0.492357D+01
 Property number 2 -- FD Optical Rotation Tensor frequency  1    0.085645:
                 1             2             3 
      1   0.000000D+00  0.000000D+00 -0.749804D+00
      2   0.000000D+00  0.000000D+00  0.395408D+00
      3  -0.718778D+01  0.412675D+01  0.000000D+00
 Property number 4 -- D-Q polarizability frequency  1    0.085645:
                 1             2             3 
      1  -0.168140D+02  0.714804D+01  0.000000D+00
      2   0.147011D+02 -0.108234D+02  0.000000D+00
      3   0.211293D+01  0.367531D+01  0.000000D+00
      4  -0.897106D+01  0.541527D+01  0.000000D+00
      5   0.000000D+00  0.000000D+00 -0.948001D+00
      6   0.000000D+00  0.000000D+00 -0.164703D+01
 AllDun F.D. properties on file 20722 Mask=       B NFrqRd=     1 NDeriv=    12 ND12= 1 LenFil=     435:
 Frequencies=    0.085645
 Property number 1 -- Alpha(-w,w) derivatives, frequency  1    0.085645:
                 1             2             3             4             5 
      1   0.264118D+01 -0.289671D+01  0.000000D+00  0.255441D+01 -0.613667D+01
      2  -0.289671D+01 -0.300020D+01  0.000000D+00 -0.613667D+01 -0.324446D+01
      3   0.000000D+00  0.000000D+00 -0.153971D+00  0.000000D+00  0.000000D+00
                 6             7             8             9            10 
      1   0.000000D+00  0.000000D+00  0.000000D+00 -0.205174D+01  0.251059D+01
      2   0.000000D+00  0.000000D+00  0.000000D+00 -0.358590D+01 -0.278121D+01
      3  -0.279533D+00 -0.205174D+01 -0.358590D+01  0.000000D+00  0.000000D+00
                11            12            13            14            15 
      1  -0.278121D+01  0.000000D+00 -0.184802D+01  0.305579D+01  0.000000D+00
      2   0.181596D+01  0.000000D+00  0.305579D+01 -0.672570D+01  0.000000D+00
      3   0.000000D+00  0.243323D+00  0.000000D+00  0.000000D+00 -0.330596D+00
                16            17            18            19            20 
      1   0.000000D+00  0.000000D+00  0.126693D+01 -0.926157D+01  0.351175D+00
      2   0.000000D+00  0.000000D+00 -0.126514D+01  0.351175D+00 -0.327162D+00
      3   0.126693D+01 -0.126514D+01  0.000000D+00  0.000000D+00  0.000000D+00
                21            22            23            24            25 
      1   0.000000D+00 -0.257959D+00 -0.175914D+01  0.000000D+00  0.000000D+00
      2   0.000000D+00 -0.175914D+01 -0.261592D+00  0.000000D+00  0.000000D+00
      3  -0.407203D+00  0.000000D+00  0.000000D+00  0.502367D-01 -0.173389D+01
                26            27            28            29            30 
      1   0.000000D+00 -0.173389D+01  0.410980D+01  0.532674D+01  0.000000D+00
      2   0.000000D+00  0.468216D+00  0.532674D+01  0.151140D+01  0.000000D+00
      3   0.468216D+00  0.000000D+00  0.000000D+00  0.000000D+00  0.317851D+00
                31            32            33            34            35 
      1  -0.448438D+00  0.484001D+01  0.000000D+00  0.000000D+00  0.000000D+00
      2   0.484001D+01  0.102318D+02  0.000000D+00  0.000000D+00  0.000000D+00
      3   0.000000D+00  0.000000D+00  0.559892D+00  0.251870D+01  0.438283D+01
                36 
      1   0.251870D+01
      2   0.438283D+01
      3   0.000000D+00
 Property number 2 -- FD Optical Rotation Tensor derivatives, frequency  1    0.085645:
                 1             2             3             4             5 
      1   0.000000D+00  0.000000D+00 -0.604892D+01  0.000000D+00  0.000000D+00
      2   0.000000D+00  0.000000D+00 -0.157243D+02  0.000000D+00  0.000000D+00
      3  -0.548622D+01 -0.840676D+01  0.000000D+00  0.209838D+01  0.541714D+01
                 6             7             8             9            10 
      1   0.869465D+01 -0.132213D+02  0.113865D+02  0.000000D+00  0.000000D+00
      2   0.617289D+01 -0.267315D+02  0.133828D+02  0.000000D+00  0.000000D+00
      3   0.000000D+00  0.000000D+00  0.000000D+00 -0.178212D-02 -0.472744D+01
                11            12            13            14            15 
      1   0.000000D+00  0.429227D+01  0.000000D+00  0.000000D+00 -0.347671D+01
      2   0.000000D+00  0.449645D+01  0.000000D+00  0.000000D+00 -0.406962D+01
      3   0.377121D+01  0.000000D+00  0.302598D+01 -0.349290D+01  0.000000D+00
                16            17            18            19            20 
      1   0.631172D+01 -0.334811D+01  0.000000D+00  0.000000D+00  0.000000D+00
      2   0.614654D+01 -0.376758D+01  0.000000D+00  0.000000D+00  0.000000D+00
      3   0.000000D+00  0.000000D+00 -0.260022D+01  0.678624D+01 -0.186309D+01
                21            22            23            24            25 
      1   0.240492D+01  0.000000D+00  0.000000D+00 -0.637251D+00  0.236478D+01
      2   0.738450D+01  0.000000D+00  0.000000D+00 -0.271025D+01  0.836261D+01
      3   0.000000D+00 -0.261760D+01  0.149699D+01  0.000000D+00  0.000000D+00
                26            27            28            29            30 
      1  -0.108086D+01  0.000000D+00  0.000000D+00  0.000000D+00 -0.648268D+00
      2  -0.504030D+01  0.000000D+00  0.000000D+00  0.000000D+00  0.630511D+01
      3   0.000000D+00  0.261962D+01  0.194145D+01 -0.159034D+01  0.000000D+00
                31            32            33            34            35 
      1   0.000000D+00  0.000000D+00 -0.704248D+01  0.603079D+01  0.113143D+01
      2   0.000000D+00  0.000000D+00  0.606986D+00  0.587709D+01 -0.606086D+01
      3   0.383847D+01 -0.193526D+01  0.000000D+00  0.000000D+00  0.000000D+00
                36 
      1   0.000000D+00
      2   0.000000D+00
      3  -0.176168D-01
 Property number 4 -- D-Q polarizability derivatives, frequency  1    0.085645:
                 1             2             3             4             5 
      1  -0.143571D+02 -0.645226D+00  0.000000D+00 -0.975069D+01  0.322523D+01
      2   0.449061D+01  0.850087D+00  0.000000D+00  0.994907D+01 -0.128817D+02
      3   0.986654D+01 -0.204861D+00  0.000000D+00 -0.198381D+00  0.965649D+01
      4  -0.409934D+01  0.503103D-01  0.000000D+00 -0.522516D+01  0.652414D+01
      5   0.000000D+00  0.000000D+00  0.708652D+00  0.000000D+00  0.000000D+00
      6   0.000000D+00  0.000000D+00  0.177184D+00  0.000000D+00  0.000000D+00
                 6             7             8             9            10 
      1   0.000000D+00  0.000000D+00  0.000000D+00 -0.546897D+01 -0.973315D+00
      2   0.000000D+00  0.000000D+00  0.000000D+00 -0.709618D+01  0.478354D+01
      3   0.000000D+00  0.000000D+00  0.000000D+00  0.125652D+02 -0.381022D+01
      4   0.000000D+00  0.000000D+00  0.000000D+00 -0.138700D+01 -0.737309D+01
      5   0.181909D+00 -0.772133D+00  0.374729D+01  0.000000D+00  0.000000D+00
      6   0.912566D+00  0.372626D+01  0.356679D+01  0.000000D+00  0.000000D+00
                11            12            13            14            15 
      1   0.989872D-01  0.000000D+00  0.543787D+01 -0.125589D+02  0.000000D+00
      2  -0.268678D+01  0.000000D+00 -0.869596D+01  0.217477D+02  0.000000D+00
      3   0.258779D+01  0.000000D+00  0.325809D+01 -0.918880D+01  0.000000D+00
      4   0.876738D+01  0.000000D+00  0.453487D+01 -0.776843D+01  0.000000D+00
      5   0.000000D+00  0.361623D+00  0.000000D+00  0.000000D+00 -0.435904D+00
      6   0.000000D+00 -0.109563D+01  0.000000D+00  0.000000D+00  0.121807D+01
                16            17            18            19            20 
      1   0.000000D+00  0.000000D+00 -0.323949D+01  0.254217D+02 -0.479117D-01
      2   0.000000D+00  0.000000D+00  0.644349D+01 -0.150809D+02  0.570312D+00
      3   0.000000D+00  0.000000D+00 -0.320399D+01 -0.103408D+02 -0.522400D+00
      4   0.000000D+00  0.000000D+00 -0.250454D+01  0.820092D+01  0.156482D+01
      5   0.203677D+01 -0.185519D+01  0.000000D+00  0.000000D+00  0.000000D+00
      6  -0.540544D+01  0.630264D+01  0.000000D+00  0.000000D+00  0.000000D+00
                21            22            23            24            25 
      1   0.000000D+00 -0.530718D+00  0.418042D+01  0.000000D+00  0.000000D+00
      2   0.000000D+00  0.172557D+01 -0.157152D+01  0.000000D+00  0.000000D+00
      3   0.000000D+00 -0.119486D+01 -0.260891D+01  0.000000D+00  0.000000D+00
      4   0.000000D+00  0.860019D+01  0.153500D+01  0.000000D+00  0.000000D+00
      5   0.166736D+01  0.000000D+00  0.000000D+00 -0.349874D+00  0.837429D+01
      6   0.319004D+00  0.000000D+00  0.000000D+00 -0.863303D-01  0.181382D+01
                26            27            28            29            30 
      1   0.000000D+00  0.618042D+01  0.682939D+01  0.455676D+01  0.000000D+00
      2   0.000000D+00 -0.298991D+01 -0.265355D+01 -0.714922D+00  0.000000D+00
      3   0.000000D+00 -0.319051D+01 -0.417584D+01 -0.384184D+01  0.000000D+00
      4   0.000000D+00  0.293483D+01  0.624346D+01  0.579545D+01  0.000000D+00
      5  -0.175703D+01  0.000000D+00  0.000000D+00  0.000000D+00  0.218594D+01
      6  -0.464976D-01  0.000000D+00  0.000000D+00  0.000000D+00  0.599440D+00
                31            32            33            34            35 
      1   0.286224D+01 -0.563206D+01  0.000000D+00  0.000000D+00  0.000000D+00
      2   0.983919D+00  0.142762D+02  0.000000D+00  0.000000D+00  0.000000D+00
      3  -0.384616D+01 -0.864410D+01  0.000000D+00  0.000000D+00  0.000000D+00
      4   0.478060D+01  0.268124D+01  0.000000D+00  0.000000D+00  0.000000D+00
      5   0.000000D+00  0.000000D+00  0.603869D+00  0.305156D+01  0.283689D+01
      6   0.000000D+00  0.000000D+00  0.287926D+01  0.283732D+01  0.635503D+01
                36 
      1  -0.754335D+00
      2   0.360225D+00
      3   0.394111D+00
      4   0.956713D+00
      5   0.000000D+00
      6   0.000000D+00
 1\1\ WCSS.PL-BEM-WN1505\Freq\RHF\3-21G\C1H2O1\ROOT\11-Mar-2019\0\\# fr
 eq=roa hf/3-21g\\Formaldehyde\\0,1\C,-0.49738219,0.72774868,0.\H,0.035
 78156,-0.19995624,0.\H,-1.56738219,0.72774868,0.\O,0.12965824,1.818799
 03,0.\\Version=ES64L-G09RevE.01\State=1-A'\HF=-113.2174093\RMSD=2.351e
 -09\RMSF=3.331e-02\ZeroPoint=0.0286691\Thermal=0.0315294\Dipole=-0.556
 4276,-0.9684907,0.\DipoleDeriv=0.7355404,-0.0319067,0.,-0.0308426,0.69
 67789,0.,0.,0.,0.1414092,-0.0500532,0.0791152,0.,0.0899733,-0.0799328,
 0.,0.,0.,0.1153595,-0.1466583,0.0342253,0.,0.0234789,0.0160798,0.,0.,0
 .,0.1148764,-0.5388288,-0.0814338,0.,-0.0826096,-0.6329259,0.,0.,0.,-0
 .3716452\Polar=0.,0.,0.,0.,0.,0.\PG=CS [SG(C1H2O1)]\NImag=0\\0.7877781
 7,0.04710635,0.84415053,0.,0.,0.22467364,-0.16538914,0.14051849,0.,0.1
 5359003,0.13662819,-0.27636295,0.,-0.13876892,0.31831104,0.,0.,-0.0656
 0708,0.,0.,0.02131800,-0.36835816,0.01975359,0.,-0.00989733,-0.0041748
 4,0.,0.39727376,0.02383044,-0.07286372,0.,0.02817941,0.00393662,0.,0.0
 0170405,0.07484142,0.,0.,-0.06577374,0.,0.,0.02241319,0.,0.,0.02126170
 ,-0.25403088,-0.20737843,0.,0.02169643,0.00631557,0.,-0.01901828,-0.05
 371390,0.,0.25135272,-0.20756498,-0.49492387,0.,-0.02992898,-0.0458847
 1,0.,-0.01728280,-0.00591433,0.,0.25477676,0.54672291,0.,0.,-0.0932928
 3,0.,0.,0.02187589,0.,0.,0.02209885,0.,0.,0.04931810\\-0.04365230,-0.0
 7733357,0.,0.00208047,0.00773065,0.,0.00577643,0.00627034,0.,0.0357954
 0,0.06333258,0.\\\@


 THE MORE PROGRESS PHYSICAL SCIENCES MAKE, THE MORE THEY TEND TO ENTER
 THE DOMAIN OF MATHEMATICS, WHICH IS A KIND OF CENTRE TO WHICH THEY ALL
 CONVERGE.  WE MAY EVEN JUDGE THE DEGREE OF PERFECTION TO WHICH A 
 SCIENCE HAS ARRIVED BY THE FACILITY WITH WHICH IT MAY BE SUBMITTED
 TO CALCULATION.

                               -- ADOLPHE QUETELET, 1796-1874
 Job cpu time:       0 days  0 hours  0 minutes  2.1 seconds.
 File lengths (MBytes):  RWF=      5 Int=      0 D2E=      0 Chk=      1 Scr=      1
 Normal termination of Gaussian 09 at Mon Mar 11 17:21:53 2019.
