 Entering Gaussian System, Link 0=g09.bin
 Initial command:
 /net/software/local/gaussian09/E.01/g09/l1.exe "/net/scratch/people/plgjawiczuk/slurm_jobdir/7288962/Gau-22629.inp" -scrdir="/net/scratch/people/plgjawiczuk/slurm_jobdir/7288962/"
 Entering Link 1 = /net/software/local/gaussian09/E.01/g09/l1.exe PID=     22648.
  
 Copyright (c) 1988,1990,1992,1993,1995,1998,2003,2009,2015,
            Gaussian, Inc.  All Rights Reserved.
  
 This is part of the Gaussian(R) 09 program.  It is based on
 the Gaussian(R) 03 system (copyright 2003, Gaussian, Inc.),
 the Gaussian(R) 98 system (copyright 1998, Gaussian, Inc.),
 the Gaussian(R) 94 system (copyright 1995, Gaussian, Inc.),
 the Gaussian 92(TM) system (copyright 1992, Gaussian, Inc.),
 the Gaussian 90(TM) system (copyright 1990, Gaussian, Inc.),
 the Gaussian 88(TM) system (copyright 1988, Gaussian, Inc.),
 the Gaussian 86(TM) system (copyright 1986, Carnegie Mellon
 University), and the Gaussian 82(TM) system (copyright 1983,
 Carnegie Mellon University). Gaussian is a federally registered
 trademark of Gaussian, Inc.
  
 This software contains proprietary and confidential information,
 including trade secrets, belonging to Gaussian, Inc.
  
 This software is provided under written license and may be
 used, copied, transmitted, or stored only in accord with that
 written license.
  
 The following legend is applicable only to US Government
 contracts under FAR:
  
                    RESTRICTED RIGHTS LEGEND
  
 Use, reproduction and disclosure by the US Government is
 subject to restrictions as set forth in subparagraphs (a)
 and (c) of the Commercial Computer Software - Restricted
 Rights clause in FAR 52.227-19.
  
 Gaussian, Inc.
 340 Quinnipiac St., Bldg. 40, Wallingford CT 06492
  
  
 ---------------------------------------------------------------
 Warning -- This program may not be used in any manner that
 competes with the business of Gaussian, Inc. or will provide
 assistance to any competitor of Gaussian, Inc.  The licensee
 of this program is prohibited from giving any competitor of
 Gaussian, Inc. access to this program.  By using this program,
 the user acknowledges that Gaussian, Inc. is engaged in the
 business of creating and licensing software in the field of
 computational chemistry and represents and warrants to the
 licensee that it is not a competitor of Gaussian, Inc. and that
 it will not use this program in any manner prohibited above.
 ---------------------------------------------------------------
  

 Cite this work as:
 Gaussian 09, Revision E.01,
 M. J. Frisch, G. W. Trucks, H. B. Schlegel, G. E. Scuseria, 
 M. A. Robb, J. R. Cheeseman, G. Scalmani, V. Barone, B. Mennucci, 
 G. A. Petersson, H. Nakatsuji, M. Caricato, X. Li, H. P. Hratchian, 
 A. F. Izmaylov, J. Bloino, G. Zheng, J. L. Sonnenberg, M. Hada, 
 M. Ehara, K. Toyota, R. Fukuda, J. Hasegawa, M. Ishida, T. Nakajima, 
 Y. Honda, O. Kitao, H. Nakai, T. Vreven, J. A. Montgomery, Jr., 
 J. E. Peralta, F. Ogliaro, M. Bearpark, J. J. Heyd, E. Brothers, 
 K. N. Kudin, V. N. Staroverov, T. Keith, R. Kobayashi, J. Normand, 
 K. Raghavachari, A. Rendell, J. C. Burant, S. S. Iyengar, J. Tomasi, 
 M. Cossi, N. Rega, J. M. Millam, M. Klene, J. E. Knox, J. B. Cross, 
 V. Bakken, C. Adamo, J. Jaramillo, R. Gomperts, R. E. Stratmann, 
 O. Yazyev, A. J. Austin, R. Cammi, C. Pomelli, J. W. Ochterski, 
 R. L. Martin, K. Morokuma, V. G. Zakrzewski, G. A. Voth, 
 P. Salvador, J. J. Dannenberg, S. Dapprich, A. D. Daniels, 
 O. Farkas, J. B. Foresman, J. V. Ortiz, J. Cioslowski, 
 and D. J. Fox, Gaussian, Inc., Wallingford CT, 2013.
 
 ******************************************
 Gaussian 09:  ES64L-G09RevE.01 30-Nov-2015
                21-Sep-2017 
 ******************************************
 %mem=11264MB
 %rwf=.//28448.rwf,500GB
 %NProcShared=8
 Will use up to    8 processors via shared memory.
 %chk=Tolbutamid_c1.chk
 -----------------------------
 # opt freq=vcd B3LYP/Def2TZVP
 -----------------------------
 1/14=-1,18=20,19=15,26=3,38=1/1,3;
 2/9=110,12=2,17=6,18=5,40=1/2;
 3/5=44,7=101,11=2,16=1,25=1,30=1,71=1,74=-5/1,2,3;
 4//1;
 5/5=2,38=5/2;
 6/7=2,8=2,9=2,10=2,28=1/1;
 7//1,2,3,16;
 1/14=-1,18=20,19=15,26=3/3(2);
 2/9=110/2;
 99//99;
 2/9=110/2;
 3/5=44,7=101,11=2,16=1,25=1,30=1,71=1,74=-5/1,2,3;
 4/5=5,16=3,69=1/1;
 5/5=2,38=5/2;
 7//1,2,3,16;
 1/14=-1,18=20,19=15,26=3/3(-5);
 2/9=110/2;
 6/7=2,8=2,9=2,10=2,19=2,28=1/1;
 99/9=1/99;
 -------
 conflex
 -------
 Symbolic Z-matrix:
 Charge =  0 Multiplicity = 1
 C                    -4.4876   -0.9212    0.2198 
 C                    -2.9993   -1.0698    0.0934 
 C                    -2.2548   -1.645     1.1323 
 C                    -0.8742   -1.8071    1.0078 
 C                    -0.2367   -1.3926   -0.1644 
 C                    -0.9696   -0.847    -1.2208 
 C                    -2.35     -0.6895   -1.089 
 S                     1.5242   -1.5771   -0.3022 
 N                     2.0787   -0.4865    0.8116 
 O                     1.8651   -2.8971    0.1784 
 O                     1.9233   -1.1106   -1.6147 
 C                     1.9142    0.8902    0.8026 
 N                     1.6986    1.4708   -0.4082 
 C                     1.4313    2.8818   -0.5754 
 C                    -0.0497    3.1547   -0.8374 
 O                     1.9882    1.5006    1.8573 
 H                     2.31     -0.8937    1.7119 
 C                    -0.9313    2.8829    0.3837 
 C                    -2.3903    3.2028    0.0979 
 H                    -4.7784   -0.775     1.2653 
 H                    -4.9869   -1.8157   -0.1649 
 H                    -4.8406   -0.0486   -0.3399 
 H                    -2.7492   -1.9705    2.0457 
 H                    -0.3096   -2.2566    1.8212 
 H                    -0.4831   -0.5425   -2.1442 
 H                    -2.9189   -0.2653   -1.9141 
 H                     1.8037    0.8858   -1.244 
 H                     2.0192    3.2092   -1.4395 
 H                     1.7799    3.4418    0.2988 
 H                    -0.1621    4.2051   -1.1323 
 H                    -0.394     2.545    -1.682 
 H                    -0.8548    1.8329    0.6842 
 H                    -0.5893    3.4884    1.231 
 H                    -2.7702    2.5973   -0.7311 
 H                    -3.0037    2.9936    0.9799 
 H                    -2.5168    4.2587   -0.1615 
 

 GradGradGradGradGradGradGradGradGradGradGradGradGradGradGradGradGradGrad
 Berny optimization.
 Initialization pass.
                           ----------------------------
                           !    Initial Parameters    !
                           ! (Angstroms and Degrees)  !
 --------------------------                            --------------------------
 ! Name  Definition              Value          Derivative Info.                !
 --------------------------------------------------------------------------------
 ! R1    R(1,2)                  1.501          estimate D2E/DX2                !
 ! R2    R(1,20)                 1.095          estimate D2E/DX2                !
 ! R3    R(1,21)                 1.0943         estimate D2E/DX2                !
 ! R4    R(1,22)                 1.0951         estimate D2E/DX2                !
 ! R5    R(2,3)                  1.4016         estimate D2E/DX2                !
 ! R6    R(2,7)                  1.4015         estimate D2E/DX2                !
 ! R7    R(3,4)                  1.3956         estimate D2E/DX2                !
 ! R8    R(3,23)                 1.0884         estimate D2E/DX2                !
 ! R9    R(4,5)                  1.3972         estimate D2E/DX2                !
 ! R10   R(4,24)                 1.0874         estimate D2E/DX2                !
 ! R11   R(5,6)                  1.3967         estimate D2E/DX2                !
 ! R12   R(5,8)                  1.7759         estimate D2E/DX2                !
 ! R13   R(6,7)                  1.3956         estimate D2E/DX2                !
 ! R14   R(6,25)                 1.0872         estimate D2E/DX2                !
 ! R15   R(7,26)                 1.0883         estimate D2E/DX2                !
 ! R16   R(8,9)                  1.6545         estimate D2E/DX2                !
 ! R17   R(8,10)                 1.4455         estimate D2E/DX2                !
 ! R18   R(8,11)                 1.449          estimate D2E/DX2                !
 ! R19   R(9,12)                 1.3865         estimate D2E/DX2                !
 ! R20   R(9,17)                 1.0148         estimate D2E/DX2                !
 ! R21   R(12,13)                1.36           estimate D2E/DX2                !
 ! R22   R(12,16)                1.2208         estimate D2E/DX2                !
 ! R23   R(13,14)                1.4458         estimate D2E/DX2                !
 ! R24   R(13,27)                1.0256         estimate D2E/DX2                !
 ! R25   R(14,15)                1.5286         estimate D2E/DX2                !
 ! R26   R(14,28)                1.0952         estimate D2E/DX2                !
 ! R27   R(14,29)                1.0951         estimate D2E/DX2                !
 ! R28   R(15,18)                1.5304         estimate D2E/DX2                !
 ! R29   R(15,30)                1.0968         estimate D2E/DX2                !
 ! R30   R(15,31)                1.0971         estimate D2E/DX2                !
 ! R31   R(18,19)                1.5208         estimate D2E/DX2                !
 ! R32   R(18,32)                1.0948         estimate D2E/DX2                !
 ! R33   R(18,33)                1.0961         estimate D2E/DX2                !
 ! R34   R(19,34)                1.0946         estimate D2E/DX2                !
 ! R35   R(19,35)                1.0945         estimate D2E/DX2                !
 ! R36   R(19,36)                1.0946         estimate D2E/DX2                !
 ! A1    A(2,1,20)             110.9124         estimate D2E/DX2                !
 ! A2    A(2,1,21)             109.9918         estimate D2E/DX2                !
 ! A3    A(2,1,22)             110.8209         estimate D2E/DX2                !
 ! A4    A(20,1,21)            108.8828         estimate D2E/DX2                !
 ! A5    A(20,1,22)            107.217          estimate D2E/DX2                !
 ! A6    A(21,1,22)            108.9404         estimate D2E/DX2                !
 ! A7    A(1,2,3)              120.3239         estimate D2E/DX2                !
 ! A8    A(1,2,7)              120.2338         estimate D2E/DX2                !
 ! A9    A(3,2,7)              119.3807         estimate D2E/DX2                !
 ! A10   A(2,3,4)              120.4642         estimate D2E/DX2                !
 ! A11   A(2,3,23)             120.2307         estimate D2E/DX2                !
 ! A12   A(4,3,23)             119.3052         estimate D2E/DX2                !
 ! A13   A(3,4,5)              119.4538         estimate D2E/DX2                !
 ! A14   A(3,4,24)             119.6635         estimate D2E/DX2                !
 ! A15   A(5,4,24)             120.8824         estimate D2E/DX2                !
 ! A16   A(4,5,6)              120.7306         estimate D2E/DX2                !
 ! A17   A(4,5,8)              119.1228         estimate D2E/DX2                !
 ! A18   A(6,5,8)              120.1455         estimate D2E/DX2                !
 ! A19   A(5,6,7)              119.4507         estimate D2E/DX2                !
 ! A20   A(5,6,25)             121.1299         estimate D2E/DX2                !
 ! A21   A(7,6,25)             119.4193         estimate D2E/DX2                !
 ! A22   A(2,7,6)              120.4833         estimate D2E/DX2                !
 ! A23   A(2,7,26)             120.2126         estimate D2E/DX2                !
 ! A24   A(6,7,26)             119.3039         estimate D2E/DX2                !
 ! A25   A(5,8,9)              102.2159         estimate D2E/DX2                !
 ! A26   A(5,8,10)             107.6324         estimate D2E/DX2                !
 ! A27   A(5,8,11)             108.056          estimate D2E/DX2                !
 ! A28   A(9,8,10)             107.4016         estimate D2E/DX2                !
 ! A29   A(9,8,11)             107.7732         estimate D2E/DX2                !
 ! A30   A(10,8,11)            122.0181         estimate D2E/DX2                !
 ! A31   A(8,9,12)             127.6158         estimate D2E/DX2                !
 ! A32   A(8,9,17)             114.1493         estimate D2E/DX2                !
 ! A33   A(12,9,17)            115.5445         estimate D2E/DX2                !
 ! A34   A(9,12,13)            116.6457         estimate D2E/DX2                !
 ! A35   A(9,12,16)            118.9235         estimate D2E/DX2                !
 ! A36   A(13,12,16)           124.4227         estimate D2E/DX2                !
 ! A37   A(12,13,14)           123.2918         estimate D2E/DX2                !
 ! A38   A(12,13,27)           117.7608         estimate D2E/DX2                !
 ! A39   A(14,13,27)           118.7754         estimate D2E/DX2                !
 ! A40   A(13,14,15)           111.9124         estimate D2E/DX2                !
 ! A41   A(13,14,28)           106.4837         estimate D2E/DX2                !
 ! A42   A(13,14,29)           110.3575         estimate D2E/DX2                !
 ! A43   A(15,14,28)           109.359          estimate D2E/DX2                !
 ! A44   A(15,14,29)           110.7285         estimate D2E/DX2                !
 ! A45   A(28,14,29)           107.8228         estimate D2E/DX2                !
 ! A46   A(14,15,18)           112.9335         estimate D2E/DX2                !
 ! A47   A(14,15,30)           108.4431         estimate D2E/DX2                !
 ! A48   A(14,15,31)           109.6821         estimate D2E/DX2                !
 ! A49   A(18,15,30)           109.0011         estimate D2E/DX2                !
 ! A50   A(18,15,31)           109.5587         estimate D2E/DX2                !
 ! A51   A(30,15,31)           107.0424         estimate D2E/DX2                !
 ! A52   A(15,18,19)           111.4292         estimate D2E/DX2                !
 ! A53   A(15,18,32)           110.4306         estimate D2E/DX2                !
 ! A54   A(15,18,33)           109.8112         estimate D2E/DX2                !
 ! A55   A(19,18,32)           108.6848         estimate D2E/DX2                !
 ! A56   A(19,18,33)           109.172          estimate D2E/DX2                !
 ! A57   A(32,18,33)           107.2062         estimate D2E/DX2                !
 ! A58   A(18,19,34)           111.0348         estimate D2E/DX2                !
 ! A59   A(18,19,35)           110.2444         estimate D2E/DX2                !
 ! A60   A(18,19,36)           110.997          estimate D2E/DX2                !
 ! A61   A(34,19,35)           108.063          estimate D2E/DX2                !
 ! A62   A(34,19,36)           108.301          estimate D2E/DX2                !
 ! A63   A(35,19,36)           108.0937         estimate D2E/DX2                !
 ! D1    D(20,1,2,3)            30.872          estimate D2E/DX2                !
 ! D2    D(20,1,2,7)          -151.9993         estimate D2E/DX2                !
 ! D3    D(21,1,2,3)           -89.6378         estimate D2E/DX2                !
 ! D4    D(21,1,2,7)            87.4909         estimate D2E/DX2                !
 ! D5    D(22,1,2,3)           149.8394         estimate D2E/DX2                !
 ! D6    D(22,1,2,7)           -33.0319         estimate D2E/DX2                !
 ! D7    D(1,2,3,4)            178.8148         estimate D2E/DX2                !
 ! D8    D(1,2,3,23)            -1.1641         estimate D2E/DX2                !
 ! D9    D(7,2,3,4)              1.6617         estimate D2E/DX2                !
 ! D10   D(7,2,3,23)          -178.3172         estimate D2E/DX2                !
 ! D11   D(1,2,7,6)           -178.8819         estimate D2E/DX2                !
 ! D12   D(1,2,7,26)             1.2656         estimate D2E/DX2                !
 ! D13   D(3,2,7,6)             -1.7262         estimate D2E/DX2                !
 ! D14   D(3,2,7,26)           178.4213         estimate D2E/DX2                !
 ! D15   D(2,3,4,5)             -0.0964         estimate D2E/DX2                !
 ! D16   D(2,3,4,24)          -179.8887         estimate D2E/DX2                !
 ! D17   D(23,3,4,5)           179.8827         estimate D2E/DX2                !
 ! D18   D(23,3,4,24)            0.0904         estimate D2E/DX2                !
 ! D19   D(3,4,5,6)             -1.4369         estimate D2E/DX2                !
 ! D20   D(3,4,5,8)            178.9466         estimate D2E/DX2                !
 ! D21   D(24,4,5,6)           178.3527         estimate D2E/DX2                !
 ! D22   D(24,4,5,8)            -1.2638         estimate D2E/DX2                !
 ! D23   D(4,5,6,7)              1.3736         estimate D2E/DX2                !
 ! D24   D(4,5,6,25)          -178.6451         estimate D2E/DX2                !
 ! D25   D(8,5,6,7)           -179.0138         estimate D2E/DX2                !
 ! D26   D(8,5,6,25)             0.9675         estimate D2E/DX2                !
 ! D27   D(4,5,8,9)            -68.0399         estimate D2E/DX2                !
 ! D28   D(4,5,8,10)            44.9079         estimate D2E/DX2                !
 ! D29   D(4,5,8,11)           178.4396         estimate D2E/DX2                !
 ! D30   D(6,5,8,9)            112.3414         estimate D2E/DX2                !
 ! D31   D(6,5,8,10)          -134.7109         estimate D2E/DX2                !
 ! D32   D(6,5,8,11)            -1.1791         estimate D2E/DX2                !
 ! D33   D(5,6,7,2)              0.2236         estimate D2E/DX2                !
 ! D34   D(5,6,7,26)          -179.9226         estimate D2E/DX2                !
 ! D35   D(25,6,7,2)          -179.758          estimate D2E/DX2                !
 ! D36   D(25,6,7,26)            0.0958         estimate D2E/DX2                !
 ! D37   D(5,8,9,12)           -63.1685         estimate D2E/DX2                !
 ! D38   D(5,8,9,17)            97.2327         estimate D2E/DX2                !
 ! D39   D(10,8,9,12)         -176.2876         estimate D2E/DX2                !
 ! D40   D(10,8,9,17)          -15.8864         estimate D2E/DX2                !
 ! D41   D(11,8,9,12)           50.561          estimate D2E/DX2                !
 ! D42   D(11,8,9,17)         -149.0378         estimate D2E/DX2                !
 ! D43   D(8,9,12,13)          -24.3943         estimate D2E/DX2                !
 ! D44   D(8,9,12,16)          156.5932         estimate D2E/DX2                !
 ! D45   D(17,9,12,13)         175.436          estimate D2E/DX2                !
 ! D46   D(17,9,12,16)          -3.5765         estimate D2E/DX2                !
 ! D47   D(9,12,13,14)         176.2784         estimate D2E/DX2                !
 ! D48   D(9,12,13,27)          -8.554          estimate D2E/DX2                !
 ! D49   D(16,12,13,14)         -4.7694         estimate D2E/DX2                !
 ! D50   D(16,12,13,27)        170.3982         estimate D2E/DX2                !
 ! D51   D(12,13,14,15)       -103.2367         estimate D2E/DX2                !
 ! D52   D(12,13,14,28)        137.3147         estimate D2E/DX2                !
 ! D53   D(12,13,14,29)         20.5548         estimate D2E/DX2                !
 ! D54   D(27,13,14,15)         81.642          estimate D2E/DX2                !
 ! D55   D(27,13,14,28)        -37.8065         estimate D2E/DX2                !
 ! D56   D(27,13,14,29)       -154.5664         estimate D2E/DX2                !
 ! D57   D(13,14,15,18)         69.121          estimate D2E/DX2                !
 ! D58   D(13,14,15,30)       -169.9636         estimate D2E/DX2                !
 ! D59   D(13,14,15,31)        -53.3861         estimate D2E/DX2                !
 ! D60   D(28,14,15,18)       -173.1366         estimate D2E/DX2                !
 ! D61   D(28,14,15,30)        -52.2211         estimate D2E/DX2                !
 ! D62   D(28,14,15,31)         64.3563         estimate D2E/DX2                !
 ! D63   D(29,14,15,18)        -54.462          estimate D2E/DX2                !
 ! D64   D(29,14,15,30)         66.4535         estimate D2E/DX2                !
 ! D65   D(29,14,15,31)       -176.9691         estimate D2E/DX2                !
 ! D66   D(14,15,18,19)        178.3783         estimate D2E/DX2                !
 ! D67   D(14,15,18,32)        -60.7274         estimate D2E/DX2                !
 ! D68   D(14,15,18,33)         57.2887         estimate D2E/DX2                !
 ! D69   D(30,15,18,19)         57.7806         estimate D2E/DX2                !
 ! D70   D(30,15,18,32)        178.6749         estimate D2E/DX2                !
 ! D71   D(30,15,18,33)        -63.309          estimate D2E/DX2                !
 ! D72   D(31,15,18,19)        -59.0457         estimate D2E/DX2                !
 ! D73   D(31,15,18,32)         61.8487         estimate D2E/DX2                !
 ! D74   D(31,15,18,33)        179.8648         estimate D2E/DX2                !
 ! D75   D(15,18,19,34)         59.7847         estimate D2E/DX2                !
 ! D76   D(15,18,19,35)        179.5139         estimate D2E/DX2                !
 ! D77   D(15,18,19,36)        -60.7428         estimate D2E/DX2                !
 ! D78   D(32,18,19,34)        -62.1257         estimate D2E/DX2                !
 ! D79   D(32,18,19,35)         57.6036         estimate D2E/DX2                !
 ! D80   D(32,18,19,36)        177.3468         estimate D2E/DX2                !
 ! D81   D(33,18,19,34)       -178.7533         estimate D2E/DX2                !
 ! D82   D(33,18,19,35)        -59.0241         estimate D2E/DX2                !
 ! D83   D(33,18,19,36)         60.7192         estimate D2E/DX2                !
 --------------------------------------------------------------------------------
 Trust Radius=3.00D-01 FncErr=1.00D-07 GrdErr=1.00D-06
 Number of steps in this run=    192 maximum allowed number of steps=    216.
 GradGradGradGradGradGradGradGradGradGradGradGradGradGradGradGradGradGrad

                          Input orientation:                          
 ---------------------------------------------------------------------
 Center     Atomic      Atomic             Coordinates (Angstroms)
 Number     Number       Type             X           Y           Z
 ---------------------------------------------------------------------
      1          6           0       -4.487600   -0.921200    0.219800
      2          6           0       -2.999300   -1.069800    0.093400
      3          6           0       -2.254800   -1.645000    1.132300
      4          6           0       -0.874200   -1.807100    1.007800
      5          6           0       -0.236700   -1.392600   -0.164400
      6          6           0       -0.969600   -0.847000   -1.220800
      7          6           0       -2.350000   -0.689500   -1.089000
      8         16           0        1.524200   -1.577100   -0.302200
      9          7           0        2.078700   -0.486500    0.811600
     10          8           0        1.865100   -2.897100    0.178400
     11          8           0        1.923300   -1.110600   -1.614700
     12          6           0        1.914200    0.890200    0.802600
     13          7           0        1.698600    1.470800   -0.408200
     14          6           0        1.431300    2.881800   -0.575400
     15          6           0       -0.049700    3.154700   -0.837400
     16          8           0        1.988200    1.500600    1.857300
     17          1           0        2.310000   -0.893700    1.711900
     18          6           0       -0.931300    2.882900    0.383700
     19          6           0       -2.390300    3.202800    0.097900
     20          1           0       -4.778400   -0.775000    1.265300
     21          1           0       -4.986900   -1.815700   -0.164900
     22          1           0       -4.840600   -0.048600   -0.339900
     23          1           0       -2.749200   -1.970500    2.045700
     24          1           0       -0.309600   -2.256600    1.821200
     25          1           0       -0.483100   -0.542500   -2.144200
     26          1           0       -2.918900   -0.265300   -1.914100
     27          1           0        1.803700    0.885800   -1.244000
     28          1           0        2.019200    3.209200   -1.439500
     29          1           0        1.779900    3.441800    0.298800
     30          1           0       -0.162100    4.205100   -1.132300
     31          1           0       -0.394000    2.545000   -1.682000
     32          1           0       -0.854800    1.832900    0.684200
     33          1           0       -0.589300    3.488400    1.231000
     34          1           0       -2.770200    2.597300   -0.731100
     35          1           0       -3.003700    2.993600    0.979900
     36          1           0       -2.516800    4.258700   -0.161500
 ---------------------------------------------------------------------
                    Distance matrix (angstroms):
                    1          2          3          4          5
     1  C    0.000000
     2  C    1.501032   0.000000
     3  C    2.518321   1.401588   0.000000
     4  C    3.802949   2.428125   1.395648   0.000000
     5  C    4.294180   2.793317   2.412025   1.397236   0.000000
     6  C    3.802257   2.428259   2.797431   2.428487   1.396711
     7  C    2.517136   1.401531   2.419962   2.797067   2.411487
     8  S    6.069961   4.569016   4.042678   2.742503   1.775894
     9  N    6.607230   5.161602   4.497132   3.240694   2.671080
    10  O    6.653021   5.196984   4.410358   3.062641   2.607412
    11  O    6.670900   5.210687   5.028729   3.897259   2.616963
    12  C    6.678613   5.337326   4.890450   3.884934   3.282169
    13  N    6.662216   5.364375   5.264097   4.401021   3.464662
    14  C    7.080150   5.974333   6.082392   5.459637   4.606695
    15  C    6.117646   5.235736   5.637314   5.357614   4.600634
    16  O    7.105104   5.881620   5.331367   4.455992   4.172296
    17  H    6.959489   5.553307   4.662380   3.386619   3.202356
    18  C    5.210116   4.470429   4.776393   4.731687   4.366095
    19  C    4.628272   4.315786   4.958781   5.312775   5.081781
    20  H    1.094993   2.150687   2.672666   4.046519   4.801303
    21  H    1.094269   2.138607   3.029230   4.276634   4.769006
    22  H    1.095127   2.149647   3.376718   4.543231   4.799274
    23  H    2.730746   2.164552   1.088431   2.149316   3.395757
    24  H    4.669417   3.410025   2.152311   1.087402   2.166661
    25  H    4.665611   3.408249   3.884569   3.418666   2.168638
    26  H    2.728471   2.164195   3.409568   3.885286   3.395063
    27  H    6.707340   5.355541   5.340709   4.415140   3.243436
    28  H    7.883649   6.770891   6.960208   6.286836   5.281243
    29  H    7.636987   6.575521   6.545919   5.924346   5.258579
    30  H    6.842301   6.113642   6.612978   6.421344   5.681253
    31  H    5.691129   4.796500   5.379495   5.138715   4.222860
    32  H    4.582354   3.656992   3.775789   3.654407   3.392052
    33  H    5.971921   5.280097   5.397724   5.307853   5.088775
    34  H    4.029084   3.765622   4.662082   5.100718   4.760155
    35  H    4.255041   4.158981   4.701137   5.251882   5.310787
    36  H    5.555250   5.356369   6.049482   6.392130   6.093936
                    6          7          8          9         10
     6  C    0.000000
     7  C    1.395594   0.000000
     8  S    2.756068   4.051705   0.000000
     9  N    3.681405   4.823575   1.654518   0.000000
    10  O    3.767784   4.924111   1.445541   2.501511   0.000000
    11  O    2.931469   4.326058   1.448986   2.510096   2.531833
    12  C    3.927889   4.925140   2.731346   1.386522   3.838708
    13  N    3.626542   4.639132   3.054725   2.337394   4.410258
    14  C    4.481608   5.226490   4.468228   3.699776   5.843978
    15  C    4.123932   4.486932   5.015330   4.528535   6.428265
    16  O    4.871807   5.683063   3.788268   2.247275   4.708888
    17  H    4.399851   5.440803   2.267403   1.014816   2.561868
    18  C    4.060547   4.116260   5.137270   4.538288   6.424204
    19  C    4.489793   4.069442   6.191190   5.838858   7.437990
    20  H    4.548938   3.383366   6.543943   6.878146   7.058382
    21  H    4.265209   3.012562   6.516917   7.255552   6.945299
    22  H    4.049453   2.678618   6.545870   7.028116   7.304040
    23  H    3.885775   3.409790   4.891763   5.199411   5.063315
    24  H    3.417065   3.884366   2.886758   3.139510   2.799706
    25  H    1.087230   2.149505   2.914209   3.911868   4.056187
    26  H    2.149142   1.088294   4.905118   5.696874   5.847357
    27  H    3.270218   4.445089   2.651600   2.486830   4.041946
    28  H    5.043165   5.866227   4.944405   4.327723   6.318880
    29  H    5.316271   6.004140   5.061219   3.972881   6.340616
    30  H    5.116992   5.361519   6.080009   5.550770   7.501248
    31  H    3.471266   3.826170   4.751321   4.639211   6.179084
    32  H    3.289995   3.426713   4.273257   3.741827   5.479652
    33  H    4.995162   5.092869   5.698849   4.805617   6.921463
    34  H    3.917291   3.332824   6.004285   5.949922   7.245801
    35  H    4.871432   4.274681   6.560256   6.161997   7.684267
    36  H    5.439128   5.037138   7.099721   6.677010   8.397741
                   11         12         13         14         15
    11  O    0.000000
    12  C    3.137933   0.000000
    13  N    2.858279   1.360006   0.000000
    14  C    4.154692   2.469524   1.445796   0.000000
    15  C    4.763372   3.416791   2.465012   1.528555   0.000000
    16  O    4.344809   1.220842   2.284129   2.852346   3.761714
    17  H    3.356017   2.041025   3.234114   4.500917   5.334478
    18  C    5.300036   3.499029   3.088285   2.549853   1.530418
    19  C    6.336053   4.936947   4.469347   3.893713   2.521013
    20  H    7.302042   6.912154   7.056610   7.437791   6.498038
    21  H    7.095770   7.475502   7.453602   7.964189   7.037974
    22  H    6.964431   6.914765   6.713745   6.926719   5.784579
    23  H    5.997517   5.610366   6.135723   6.920373   6.470490
    24  H    4.254946   3.985622   4.785039   5.931069   6.034722
    25  H    2.528610   4.059964   3.439024   4.225150   3.945231
    26  H    4.924538   5.663435   5.157818   5.533588   4.592166
    27  H    2.034044   2.049586   1.025589   2.137691   2.957756
    28  H    4.324415   3.227352   2.046558   1.095210   2.155422
    29  H    4.940283   2.604326   2.095543   1.095147   2.172743
    30  H    5.730469   4.363877   3.385694   2.144804   1.096786
    31  H    4.328720   3.773511   2.674967   2.160953   1.097099
    32  H    4.654780   2.927467   2.800769   2.813012   2.170393
    33  H    5.963386   3.633412   3.462972   2.777385   2.163516
    34  H    6.046339   5.216323   4.619896   4.213999   2.779049
    35  H    6.917495   5.351772   5.133943   4.701136   3.471980
    36  H    7.117279   5.648897   5.059925   4.201745   2.786080
                   16         17         18         19         20
    16  O    0.000000
    17  H    2.420200   0.000000
    18  C    3.550455   5.151005   0.000000
    19  C    5.016397   6.440429   1.520756   0.000000
    20  H    7.163497   7.103447   5.381229   4.784218   0.000000
    21  H    7.983681   7.590600   6.231027   5.656566   1.781011
    22  H    7.338952   7.486999   4.939627   4.094782   1.763007
    23  H    5.875967   5.183283   5.442655   5.539474   2.481108
    24  H    4.404287   2.954953   5.372837   6.091315   4.740711
    25  H    5.127727   4.774333   4.280716   4.763580   5.488930
    26  H    6.435953   6.394072   4.375112   4.044166   3.718349
    27  H    3.167030   3.487163   3.757398   4.975824   7.237326
    28  H    3.713377   5.181667   3.483673   4.669832   8.330496
    29  H    2.498113   4.590688   2.769509   4.181872   7.856642
    30  H    4.569006   6.340230   2.153634   2.735484   7.201396
    31  H    4.392299   5.536680   2.161015   2.754262   6.239547
    32  H    3.093418   4.301915   1.094830   2.139657   4.746942
    33  H    3.314680   5.276363   1.096135   2.146878   5.977149
    34  H    5.526747   6.630517   2.169309   1.094621   4.403509
    35  H    5.283743   6.624374   2.159294   1.094508   4.175327
    36  H    5.654882   7.304441   2.168843   1.094630   5.699888
                   21         22         23         24         25
    21  H    0.000000
    22  H    1.781761   0.000000
    23  H    3.149288   3.709278   0.000000
    24  H    5.100600   5.484121   2.466557   0.000000
    25  H    5.081622   4.742071   4.972892   4.323498   0.000000
    26  H    3.120908   2.493591   4.314687   4.972543   2.462297
    27  H    7.387476   6.770319   6.301545   4.871978   2.842509
    28  H    8.715484   7.673281   7.855797   6.777200   4.564358
    29  H    8.581719   7.511448   7.270309   6.257434   5.192693
    30  H    7.775898   6.372615   7.411532   7.106229   4.864842
    31  H    6.512452   5.319797   6.311296   5.944316   3.123175
    32  H    5.577410   4.524978   4.461870   4.279489   3.712214
    33  H    7.030000   5.749056   5.926930   5.782006   5.258461
    34  H    4.970806   3.382363   5.345639   6.010751   4.133524
    35  H    5.326633   3.790917   5.083600   5.960752   5.349526
    36  H    6.557419   4.897418   6.612766   7.159048   5.578401
                   26         27         28         29         30
    26  H    0.000000
    27  H    4.906834   0.000000
    28  H    6.056585   2.341548   0.000000
    29  H    6.381084   2.985621   1.770044   0.000000
    30  H    5.309956   3.859352   2.417490   2.530225   0.000000
    31  H    3.785073   2.788310   2.514657   3.074680   1.764052
    32  H    3.926081   3.417978   3.829384   3.111067   3.067057
    33  H    5.423002   4.315739   3.743500   2.546424   2.506261
    34  H    3.100980   4.910485   4.880021   4.741021   3.090011
    35  H    4.359227   5.700846   5.579382   4.852588   3.742167
    36  H    4.868251   5.587037   4.828046   4.397821   2.547536
                   31         32         33         34         35
    31  H    0.000000
    32  H    2.513628   0.000000
    33  H    3.068178   1.763565   0.000000
    34  H    2.559936   2.501227   3.065978   0.000000
    35  H    3.754662   2.460170   2.477338   1.771750   0.000000
    36  H    3.123294   3.059732   2.499535   1.774516   1.772101
                   36
    36  H    0.000000
 Stoichiometry    C12H18N2O3S
 Framework group  C1[X(C12H18N2O3S)]
 Deg. of freedom   102
 Full point group                 C1      NOp   1
 Largest Abelian subgroup         C1      NOp   1
 Largest concise Abelian subgroup C1      NOp   1
                         Standard orientation:                         
 ---------------------------------------------------------------------
 Center     Atomic      Atomic             Coordinates (Angstroms)
 Number     Number       Type             X           Y           Z
 ---------------------------------------------------------------------
      1          6           0       -4.419523   -0.944790    0.182707
      2          6           0       -2.932452   -1.108554    0.060653
      3          6           0       -2.200001   -1.712239    1.091929
      4          6           0       -0.820789   -1.888261    0.970997
      5          6           0       -0.172568   -1.459048   -0.189974
      6          6           0       -0.893680   -0.884760   -1.239257
      7          6           0       -2.272782   -0.713478   -1.111114
      8         16           0        1.586716   -1.661712   -0.322801
      9          7           0        2.148362   -0.599196    0.814320
     10          8           0        1.909670   -2.994582    0.134089
     11          8           0        1.997874   -1.175014   -1.624198
     12          6           0        2.000083    0.779275    0.830872
     13          7           0        1.797419    1.385378   -0.369620
     14          6           0        1.547548    2.802376   -0.511075
     15          6           0        0.071193    3.097731   -0.774932
     16          8           0        2.075929    1.368525    1.897403
     17          1           0        2.370326   -1.026206    1.707766
     18          6           0       -0.819679    2.813138    0.436486
     19          6           0       -2.273364    3.155676    0.149839
     20          1           0       -4.713851   -0.815130    1.229402
     21          1           0       -4.927345   -1.825817   -0.221437
     22          1           0       -4.759430   -0.057556   -0.361886
     23          1           0       -2.702785   -2.049231    1.996542
     24          1           0       -0.265612   -2.359846    1.778356
     25          1           0       -0.398991   -0.568479   -2.154309
     26          1           0       -2.832498   -0.266912   -1.930675
     27          1           0        1.899854    0.815226   -1.215945
     28          1           0        2.143598    3.139220   -1.365912
     29          1           0        1.898289    3.341432    0.375348
     30          1           0       -0.027380    4.154822   -1.050216
     31          1           0       -0.275980    2.508372   -1.632691
     32          1           0       -0.757027    1.756765    0.717204
     33          1           0       -0.474868    3.398275    1.296853
     34          1           0       -2.656164    2.570639   -0.692415
     35          1           0       -2.893615    2.936962    1.024711
     36          1           0       -2.386150    4.217755   -0.089915
 ---------------------------------------------------------------------
 Rotational constants (GHZ):      0.4123379      0.3732419      0.2376548
 Standard basis: def2TZVP (5D, 7F)
 There are   762 symmetry adapted cartesian basis functions of A   symmetry.
 There are   672 symmetry adapted basis functions of A   symmetry.
   672 basis functions,  1080 primitive gaussians,   762 cartesian basis functions
    72 alpha electrons       72 beta electrons
       nuclear repulsion energy      1585.7965094232 Hartrees.
 NAtoms=   36 NActive=   36 NUniq=   36 SFac= 1.00D+00 NAtFMM=   60 NAOKFM=F Big=F
 Integral buffers will be    131072 words long.
 Raffenetti 2 integral format.
 Two-electron integral symmetry is turned on.
 One-electron integrals computed using PRISM.
   1 Symmetry operations used in ECPInt.
 ECPInt:  NShTT=   37128 NPrTT=  113514 LenC2=   33785 LenP2D=   73875.
 LDataN:  DoStor=T MaxTD1= 6 Len=  172
 NBasis=   672 RedAO= T EigKep=  6.95D-06  NBF=   672
 NBsUse=   672 1.00D-06 EigRej= -1.00D+00 NBFU=   672
 ExpMin= 9.52D-02 ExpMax= 6.07D+04 ExpMxC= 2.07D+03 IAcc=2 IRadAn=         4 AccDes= 0.00D+00
 Harris functional with IExCor=  402 and IRadAn=       4 diagonalized for initial guess.
 HarFok:  IExCor=  402 AccDes= 0.00D+00 IRadAn=         4 IDoV= 1 UseB2=F ITyADJ=14
 ICtDFT=  3500011 ScaDFX=  1.000000  1.000000  1.000000  1.000000
 FoFCou: FMM=F IPFlag=           0 FMFlag=      100000 FMFlg1=           0
         NFxFlg=           0 DoJE=T BraDBF=F KetDBF=T FulRan=T
         wScrn=  0.000000 ICntrl=     500 IOpCl=  0 I1Cent=   200000004 NGrid=           0
         NMat0=    1 NMatS0=      1 NMatT0=    0 NMatD0=    1 NMtDS0=    0 NMtDT0=    0
 Petite list used in FoFCou.
 Requested convergence on RMS density matrix=1.00D-08 within 128 cycles.
 Requested convergence on MAX density matrix=1.00D-06.
 Requested convergence on             energy=1.00D-06.
 No special actions if energy rises.
 Integral accuracy reduced to 1.0D-05 until final iterations.
 Problem detected with inexpensive integrals.
 Switching to full accuracy and repeating last cycle.
 SCF Done:  E(RB3LYP) =  -1201.84677326     A.U. after   17 cycles
            NFock= 17  Conv=0.45D-08     -V/T= 2.0040

 **********************************************************************

            Population analysis using the SCF density.

 **********************************************************************

 Orbital symmetries:
       Occupied  (A) (A) (A) (A) (A) (A) (A) (A) (A) (A) (A) (A)
                 (A) (A) (A) (A) (A) (A) (A) (A) (A) (A) (A) (A)
                 (A) (A) (A) (A) (A) (A) (A) (A) (A) (A) (A) (A)
                 (A) (A) (A) (A) (A) (A) (A) (A) (A) (A) (A) (A)
                 (A) (A) (A) (A) (A) (A) (A) (A) (A) (A) (A) (A)
                 (A) (A) (A) (A) (A) (A) (A) (A) (A) (A) (A) (A)
       Virtual   (A) (A) (A) (A) (A) (A) (A) (A) (A) (A) (A) (A)
                 (A) (A) (A) (A) (A) (A) (A) (A) (A) (A) (A) (A)
                 (A) (A) (A) (A) (A) (A) (A) (A) (A) (A) (A) (A)
                 (A) (A) (A) (A) (A) (A) (A) (A) (A) (A) (A) (A)
                 (A) (A) (A) (A) (A) (A) (A) (A) (A) (A) (A) (A)
                 (A) (A) (A) (A) (A) (A) (A) (A) (A) (A) (A) (A)
                 (A) (A) (A) (A) (A) (A) (A) (A) (A) (A) (A) (A)
                 (A) (A) (A) (A) (A) (A) (A) (A) (A) (A) (A) (A)
                 (A) (A) (A) (A) (A) (A) (A) (A) (A) (A) (A) (A)
                 (A) (A) (A) (A) (A) (A) (A) (A) (A) (A) (A) (A)
                 (A) (A) (A) (A) (A) (A) (A) (A) (A) (A) (A) (A)
                 (A) (A) (A) (A) (A) (A) (A) (A) (A) (A) (A) (A)
                 (A) (A) (A) (A) (A) (A) (A) (A) (A) (A) (A) (A)
                 (A) (A) (A) (A) (A) (A) (A) (A) (A) (A) (A) (A)
                 (A) (A) (A) (A) (A) (A) (A) (A) (A) (A) (A) (A)
                 (A) (A) (A) (A) (A) (A) (A) (A) (A) (A) (A) (A)
                 (A) (A) (A) (A) (A) (A) (A) (A) (A) (A) (A) (A)
                 (A) (A) (A) (A) (A) (A) (A) (A) (A) (A) (A) (A)
                 (A) (A) (A) (A) (A) (A) (A) (A) (A) (A) (A) (A)
                 (A) (A) (A) (A) (A) (A) (A) (A) (A) (A) (A) (A)
                 (A) (A) (A) (A) (A) (A) (A) (A) (A) (A) (A) (A)
                 (A) (A) (A) (A) (A) (A) (A) (A) (A) (A) (A) (A)
                 (A) (A) (A) (A) (A) (A) (A) (A) (A) (A) (A) (A)
                 (A) (A) (A) (A) (A) (A) (A) (A) (A) (A) (A) (A)
                 (A) (A) (A) (A) (A) (A) (A) (A) (A) (A) (A) (A)
                 (A) (A) (A) (A) (A) (A) (A) (A) (A) (A) (A) (A)
                 (A) (A) (A) (A) (A) (A) (A) (A) (A) (A) (A) (A)
                 (A) (A) (A) (A) (A) (A) (A) (A) (A) (A) (A) (A)
                 (A) (A) (A) (A) (A) (A) (A) (A) (A) (A) (A) (A)
                 (A) (A) (A) (A) (A) (A) (A) (A) (A) (A) (A) (A)
                 (A) (A) (A) (A) (A) (A) (A) (A) (A) (A) (A) (A)
                 (A) (A) (A) (A) (A) (A) (A) (A) (A) (A) (A) (A)
                 (A) (A) (A) (A) (A) (A) (A) (A) (A) (A) (A) (A)
                 (A) (A) (A) (A) (A) (A) (A) (A) (A) (A) (A) (A)
                 (A) (A) (A) (A) (A) (A) (A) (A) (A) (A) (A) (A)
                 (A) (A) (A) (A) (A) (A) (A) (A) (A) (A) (A) (A)
                 (A) (A) (A) (A) (A) (A) (A) (A) (A) (A) (A) (A)
                 (A) (A) (A) (A) (A) (A) (A) (A) (A) (A) (A) (A)
                 (A) (A) (A) (A) (A) (A) (A) (A) (A) (A) (A) (A)
                 (A) (A) (A) (A) (A) (A) (A) (A) (A) (A) (A) (A)
                 (A) (A) (A) (A) (A) (A) (A) (A) (A) (A) (A) (A)
                 (A) (A) (A) (A) (A) (A) (A) (A) (A) (A) (A) (A)
                 (A) (A) (A) (A) (A) (A) (A) (A) (A) (A) (A) (A)
                 (A) (A) (A) (A) (A) (A) (A) (A) (A) (A) (A) (A)
                 (A) (A) (A) (A) (A) (A) (A) (A) (A) (A) (A) (A)
                 (A) (A) (A) (A) (A) (A) (A) (A) (A) (A) (A) (A)
                 (A) (A) (A) (A) (A) (A) (A) (A) (A) (A) (A) (A)
                 (A) (A) (A) (A) (A) (A) (A) (A) (A) (A) (A) (A)
                 (A) (A) (A) (A) (A) (A) (A) (A) (A) (A) (A) (A)
                 (A) (A) (A) (A) (A) (A) (A) (A) (A) (A) (A) (A)
 The electronic state is 1-A.
 Alpha  occ. eigenvalues --  -89.07687 -19.14216 -19.13947 -19.09576 -14.37237
 Alpha  occ. eigenvalues --  -14.34552 -10.31294 -10.22350 -10.21437 -10.21162
 Alpha  occ. eigenvalues --  -10.21118 -10.21020 -10.20224 -10.20130 -10.18900
 Alpha  occ. eigenvalues --  -10.17389 -10.16633 -10.16223  -8.12214  -6.08610
 Alpha  occ. eigenvalues --   -6.08393  -6.08377  -1.13978  -1.06277  -1.03068
 Alpha  occ. eigenvalues --   -0.94986  -0.92741  -0.89090  -0.81179  -0.80113
 Alpha  occ. eigenvalues --   -0.77723  -0.74181  -0.73110  -0.68423  -0.65775
 Alpha  occ. eigenvalues --   -0.63987  -0.62143  -0.60146  -0.59063  -0.57579
 Alpha  occ. eigenvalues --   -0.55809  -0.52746  -0.50017  -0.49742  -0.48805
 Alpha  occ. eigenvalues --   -0.47180  -0.46600  -0.45865  -0.45466  -0.45307
 Alpha  occ. eigenvalues --   -0.44804  -0.44372  -0.42725  -0.42668  -0.40941
 Alpha  occ. eigenvalues --   -0.39397  -0.39166  -0.38708  -0.37705  -0.37387
 Alpha  occ. eigenvalues --   -0.37032  -0.35389  -0.35309  -0.34267  -0.33653
 Alpha  occ. eigenvalues --   -0.33534  -0.33335  -0.31160  -0.28619  -0.28132
 Alpha  occ. eigenvalues --   -0.27285  -0.26418
 Alpha virt. eigenvalues --   -0.05718  -0.04285   0.01056   0.01678   0.02621
 Alpha virt. eigenvalues --    0.03352   0.04465   0.05019   0.06016   0.06330
 Alpha virt. eigenvalues --    0.06942   0.07354   0.07807   0.08456   0.08736
 Alpha virt. eigenvalues --    0.09812   0.10334   0.10748   0.11141   0.11299
 Alpha virt. eigenvalues --    0.11840   0.11982   0.12524   0.12954   0.13878
 Alpha virt. eigenvalues --    0.13934   0.14495   0.15529   0.16000   0.16742
 Alpha virt. eigenvalues --    0.17253   0.17869   0.18268   0.18820   0.20091
 Alpha virt. eigenvalues --    0.20240   0.21036   0.21341   0.22434   0.22997
 Alpha virt. eigenvalues --    0.23958   0.24351   0.24749   0.24851   0.25749
 Alpha virt. eigenvalues --    0.25866   0.26653   0.26936   0.27643   0.28733
 Alpha virt. eigenvalues --    0.29357   0.29954   0.30384   0.31343   0.31580
 Alpha virt. eigenvalues --    0.32410   0.32885   0.33411   0.33921   0.34776
 Alpha virt. eigenvalues --    0.35398   0.36075   0.36780   0.37055   0.37506
 Alpha virt. eigenvalues --    0.38275   0.38512   0.39245   0.39723   0.40182
 Alpha virt. eigenvalues --    0.40920   0.41107   0.41369   0.42010   0.42468
 Alpha virt. eigenvalues --    0.43054   0.43617   0.43936   0.44169   0.44714
 Alpha virt. eigenvalues --    0.44780   0.45113   0.45561   0.46451   0.46745
 Alpha virt. eigenvalues --    0.47015   0.47332   0.47396   0.48224   0.48355
 Alpha virt. eigenvalues --    0.48870   0.48990   0.50053   0.50625   0.50851
 Alpha virt. eigenvalues --    0.51551   0.51961   0.53255   0.53500   0.54231
 Alpha virt. eigenvalues --    0.54491   0.55678   0.56451   0.57496   0.58091
 Alpha virt. eigenvalues --    0.58894   0.59922   0.60191   0.60887   0.61069
 Alpha virt. eigenvalues --    0.62971   0.63527   0.64168   0.65622   0.66035
 Alpha virt. eigenvalues --    0.66821   0.67736   0.68308   0.68880   0.69494
 Alpha virt. eigenvalues --    0.70522   0.70805   0.71679   0.72736   0.73347
 Alpha virt. eigenvalues --    0.74316   0.75104   0.75287   0.75631   0.77587
 Alpha virt. eigenvalues --    0.78122   0.78541   0.79008   0.80215   0.81343
 Alpha virt. eigenvalues --    0.82494   0.82800   0.83732   0.84244   0.85118
 Alpha virt. eigenvalues --    0.85287   0.85897   0.87388   0.87809   0.88870
 Alpha virt. eigenvalues --    0.89479   0.89600   0.90929   0.92620   0.93966
 Alpha virt. eigenvalues --    0.94269   0.96365   0.97552   0.98451   1.00311
 Alpha virt. eigenvalues --    1.00661   1.01106   1.03231   1.03632   1.03771
 Alpha virt. eigenvalues --    1.05321   1.05703   1.06589   1.07755   1.07942
 Alpha virt. eigenvalues --    1.10240   1.11785   1.12804   1.14462   1.15797
 Alpha virt. eigenvalues --    1.16210   1.17083   1.17564   1.19337   1.19808
 Alpha virt. eigenvalues --    1.20069   1.20197   1.21056   1.22157   1.23193
 Alpha virt. eigenvalues --    1.23898   1.25061   1.25528   1.26044   1.27106
 Alpha virt. eigenvalues --    1.28585   1.28976   1.29414   1.30971   1.31872
 Alpha virt. eigenvalues --    1.32600   1.34792   1.35372   1.36579   1.37906
 Alpha virt. eigenvalues --    1.38355   1.39141   1.42643   1.43540   1.45724
 Alpha virt. eigenvalues --    1.45891   1.47166   1.47650   1.48976   1.49578
 Alpha virt. eigenvalues --    1.50067   1.50572   1.51454   1.52144   1.52937
 Alpha virt. eigenvalues --    1.53525   1.53989   1.54657   1.55300   1.55884
 Alpha virt. eigenvalues --    1.56500   1.56871   1.57298   1.57840   1.58225
 Alpha virt. eigenvalues --    1.58696   1.59560   1.59992   1.60791   1.61350
 Alpha virt. eigenvalues --    1.61992   1.62505   1.63143   1.64179   1.64952
 Alpha virt. eigenvalues --    1.66911   1.67451   1.67884   1.68875   1.69933
 Alpha virt. eigenvalues --    1.70692   1.71601   1.71819   1.72918   1.73283
 Alpha virt. eigenvalues --    1.74319   1.76694   1.77338   1.77504   1.78831
 Alpha virt. eigenvalues --    1.80406   1.81175   1.82040   1.83709   1.84121
 Alpha virt. eigenvalues --    1.85237   1.86342   1.87665   1.87988   1.88166
 Alpha virt. eigenvalues --    1.89501   1.90785   1.91863   1.92642   1.95403
 Alpha virt. eigenvalues --    1.96847   1.97316   1.97959   1.98485   1.99775
 Alpha virt. eigenvalues --    2.00262   2.00840   2.01474   2.04489   2.04813
 Alpha virt. eigenvalues --    2.05577   2.05797   2.06980   2.08326   2.10707
 Alpha virt. eigenvalues --    2.11157   2.12421   2.12684   2.13598   2.14317
 Alpha virt. eigenvalues --    2.16420   2.16779   2.17396   2.18136   2.19210
 Alpha virt. eigenvalues --    2.20233   2.20851   2.21086   2.23209   2.23874
 Alpha virt. eigenvalues --    2.25618   2.27211   2.27460   2.28764   2.29576
 Alpha virt. eigenvalues --    2.31610   2.32048   2.33116   2.33941   2.34149
 Alpha virt. eigenvalues --    2.35669   2.36694   2.36858   2.38247   2.39356
 Alpha virt. eigenvalues --    2.39783   2.40150   2.41922   2.43451   2.43499
 Alpha virt. eigenvalues --    2.44284   2.44881   2.45861   2.45984   2.47378
 Alpha virt. eigenvalues --    2.48535   2.49564   2.50811   2.51243   2.52273
 Alpha virt. eigenvalues --    2.53290   2.54877   2.55410   2.56329   2.56999
 Alpha virt. eigenvalues --    2.57870   2.58748   2.59147   2.59248   2.60157
 Alpha virt. eigenvalues --    2.60981   2.61738   2.63691   2.64173   2.64890
 Alpha virt. eigenvalues --    2.65302   2.65729   2.67439   2.67654   2.68365
 Alpha virt. eigenvalues --    2.69007   2.70478   2.70757   2.72400   2.72968
 Alpha virt. eigenvalues --    2.73640   2.74317   2.75231   2.75821   2.76970
 Alpha virt. eigenvalues --    2.77796   2.78126   2.79282   2.79786   2.81009
 Alpha virt. eigenvalues --    2.82414   2.83451   2.84346   2.86215   2.86819
 Alpha virt. eigenvalues --    2.88447   2.90323   2.90355   2.92146   2.94108
 Alpha virt. eigenvalues --    2.94520   2.95529   2.96985   2.97652   2.99201
 Alpha virt. eigenvalues --    2.99630   3.00422   3.01490   3.02034   3.03132
 Alpha virt. eigenvalues --    3.04780   3.05562   3.06735   3.07402   3.07942
 Alpha virt. eigenvalues --    3.08572   3.09715   3.10851   3.11380   3.11910
 Alpha virt. eigenvalues --    3.12561   3.13258   3.13342   3.14009   3.14241
 Alpha virt. eigenvalues --    3.15477   3.16655   3.17291   3.17909   3.19077
 Alpha virt. eigenvalues --    3.19769   3.20443   3.21326   3.21947   3.23468
 Alpha virt. eigenvalues --    3.24112   3.24656   3.25436   3.25967   3.26581
 Alpha virt. eigenvalues --    3.26877   3.27583   3.29571   3.30471   3.31046
 Alpha virt. eigenvalues --    3.31800   3.31959   3.32965   3.33504   3.34466
 Alpha virt. eigenvalues --    3.34738   3.35913   3.36937   3.38049   3.38893
 Alpha virt. eigenvalues --    3.39309   3.41108   3.41489   3.42317   3.42984
 Alpha virt. eigenvalues --    3.43260   3.44130   3.44453   3.45806   3.46486
 Alpha virt. eigenvalues --    3.47696   3.48295   3.49284   3.49758   3.49883
 Alpha virt. eigenvalues --    3.51559   3.52148   3.53188   3.55361   3.57535
 Alpha virt. eigenvalues --    3.57910   3.58524   3.60552   3.62291   3.64056
 Alpha virt. eigenvalues --    3.66172   3.67714   3.71089   3.71443   3.72548
 Alpha virt. eigenvalues --    3.73222   3.73584   3.76060   3.78510   3.79932
 Alpha virt. eigenvalues --    3.81448   3.82819   3.84373   3.85682   3.86475
 Alpha virt. eigenvalues --    3.88515   3.89361   3.90881   3.91784   3.94069
 Alpha virt. eigenvalues --    3.96900   3.98002   3.99344   4.00113   4.02647
 Alpha virt. eigenvalues --    4.06222   4.07590   4.08504   4.09743   4.10799
 Alpha virt. eigenvalues --    4.12290   4.13268   4.14600   4.18048   4.18224
 Alpha virt. eigenvalues --    4.19331   4.19874   4.21333   4.23537   4.24349
 Alpha virt. eigenvalues --    4.25913   4.26900   4.28738   4.30605   4.32748
 Alpha virt. eigenvalues --    4.33804   4.35760   4.36916   4.38115   4.40739
 Alpha virt. eigenvalues --    4.42772   4.44309   4.44737   4.51221   4.54328
 Alpha virt. eigenvalues --    4.54865   4.55715   4.56908   4.60373   4.63023
 Alpha virt. eigenvalues --    4.64739   4.65687   4.66836   4.67807   4.68096
 Alpha virt. eigenvalues --    4.73900   4.74523   4.76249   4.79919   4.84728
 Alpha virt. eigenvalues --    4.86457   4.87278   4.88069   4.90045   4.93628
 Alpha virt. eigenvalues --    4.95419   5.01387   5.03279   5.04907   5.06655
 Alpha virt. eigenvalues --    5.07928   5.11390   5.12581   5.12891   5.13349
 Alpha virt. eigenvalues --    5.13483   5.14302   5.15399   5.16396   5.18378
 Alpha virt. eigenvalues --    5.19745   5.23159   5.24226   5.25708   5.26644
 Alpha virt. eigenvalues --    5.28373   5.30207   5.32455   5.33346   5.35091
 Alpha virt. eigenvalues --    5.39366   5.40249   5.42270   5.45809   5.48140
 Alpha virt. eigenvalues --    5.53132   5.57180   5.61069   5.62634   5.63724
 Alpha virt. eigenvalues --    5.65190   5.71474   5.77871   5.81148   5.91374
 Alpha virt. eigenvalues --    6.00720   6.14762   6.29781   6.33518   6.35704
 Alpha virt. eigenvalues --    6.39574   6.40689   6.45592   6.59185   6.70140
 Alpha virt. eigenvalues --    6.77978   6.80116   6.81961   6.83277   6.85189
 Alpha virt. eigenvalues --    6.88136   6.94526   7.07821   7.14146   9.35696
 Alpha virt. eigenvalues --    9.47825   9.71320  22.06446  22.31142  22.33422
 Alpha virt. eigenvalues --   22.36489  22.43202  22.49250  22.55937  22.63885
 Alpha virt. eigenvalues --   22.66461  22.72603  22.84961  23.19856  23.47277
 Alpha virt. eigenvalues --   32.24955  32.52793  43.62799  43.86753  43.91377
          Condensed to atoms (all electrons):
               1          2          3          4          5          6
     1  C    4.973570   0.288551  -0.075667   0.015046  -0.004826   0.013191
     2  C    0.288551   5.038106   0.403633   0.042010  -0.123161   0.030823
     3  C   -0.075667   0.403633   5.117707   0.341640   0.056640  -0.067266
     4  C    0.015046   0.042010   0.341640   5.182798   0.262947  -0.072916
     5  C   -0.004826  -0.123161   0.056640   0.262947   5.478984   0.359646
     6  C    0.013191   0.030823  -0.067266  -0.072916   0.359646   5.144699
     7  C   -0.075293   0.397672  -0.014847  -0.050629   0.019564   0.362980
     8  S   -0.000003  -0.000710   0.006133  -0.006541   0.290520  -0.032673
     9  N   -0.000016  -0.000845   0.004288   0.014836  -0.103611   0.005454
    10  O   -0.000002  -0.000266   0.003523   0.022511  -0.092048  -0.000588
    11  O   -0.000003  -0.000048  -0.000764   0.007851  -0.103081   0.022216
    12  C    0.000024   0.001031  -0.001372   0.007557  -0.002446  -0.002317
    13  N   -0.000018  -0.000760   0.000214  -0.005212   0.015978   0.003223
    14  C    0.000005   0.000131  -0.000100   0.000176  -0.001458   0.000208
    15  C    0.000024  -0.000000   0.000151   0.000162  -0.001782  -0.003832
    16  O    0.000002   0.000098  -0.000282   0.001768  -0.002271   0.000239
    17  H    0.000000  -0.000009   0.000102   0.001127   0.002172  -0.000963
    18  C    0.000150   0.001589  -0.000594   0.001211  -0.000640   0.002400
    19  C   -0.000204  -0.003008   0.000609  -0.000086   0.000471  -0.001530
    20  H    0.426332  -0.058101  -0.004862   0.001390   0.000116  -0.000631
    21  H    0.386849  -0.027981  -0.002276  -0.001124   0.000437  -0.001440
    22  H    0.425334  -0.056267   0.005829  -0.000662  -0.000004   0.002157
    23  H   -0.007753  -0.061723   0.438086  -0.054484   0.013963  -0.003066
    24  H   -0.000275   0.011155  -0.048774   0.433165  -0.067721   0.010820
    25  H   -0.000263   0.008629  -0.002395   0.008471  -0.038224   0.426878
    26  H   -0.007337  -0.060905   0.011996  -0.003264   0.012950  -0.058167
    27  H    0.000001   0.000075  -0.000038   0.000082  -0.001720   0.000682
    28  H   -0.000000   0.000002   0.000000  -0.000009   0.000097   0.000014
    29  H   -0.000000  -0.000004   0.000001   0.000008   0.000149  -0.000066
    30  H   -0.000002   0.000000   0.000004  -0.000019   0.000019   0.000096
    31  H   -0.000036  -0.000232  -0.000028  -0.000021   0.000413   0.000920
    32  H   -0.000175   0.001276   0.000161  -0.000714  -0.001497   0.001476
    33  H   -0.000009  -0.000137   0.000035  -0.000025   0.000097  -0.000146
    34  H   -0.000745  -0.001492   0.000594  -0.000304   0.000371  -0.000957
    35  H   -0.000003  -0.000033   0.000107  -0.000010  -0.000020   0.000141
    36  H   -0.000015   0.000192  -0.000020   0.000007  -0.000029   0.000065
               7          8          9         10         11         12
     1  C   -0.075293  -0.000003  -0.000016  -0.000002  -0.000003   0.000024
     2  C    0.397672  -0.000710  -0.000845  -0.000266  -0.000048   0.001031
     3  C   -0.014847   0.006133   0.004288   0.003523  -0.000764  -0.001372
     4  C   -0.050629  -0.006541   0.014836   0.022511   0.007851   0.007557
     5  C    0.019564   0.290520  -0.103611  -0.092048  -0.103081  -0.002446
     6  C    0.362980  -0.032673   0.005454  -0.000588   0.022216  -0.002317
     7  C    5.137096   0.003314   0.000532  -0.000208   0.002737  -0.000869
     8  S    0.003314  13.454844   0.306176   0.616401   0.551012  -0.005821
     9  N    0.000532   0.306176   6.691719  -0.047103  -0.049205   0.337083
    10  O   -0.000208   0.616401  -0.047103   7.973491  -0.043876  -0.001438
    11  O    0.002737   0.551012  -0.049205  -0.043876   8.074133  -0.008880
    12  C   -0.000869  -0.005821   0.337083  -0.001438  -0.008880   4.414335
    13  N    0.000273   0.005456  -0.104840  -0.000601  -0.014508   0.335528
    14  C   -0.000174   0.001444   0.003639  -0.000003   0.002982  -0.044797
    15  C    0.000797  -0.000284  -0.000755   0.000005  -0.000131   0.004733
    16  O   -0.000082   0.000835  -0.103375  -0.000174  -0.000227   0.710911
    17  H    0.000024  -0.015392   0.340610   0.002458   0.002521  -0.024582
    18  C   -0.004087  -0.000131   0.000507  -0.000004  -0.000046   0.002928
    19  C    0.000270   0.000009   0.000017   0.000000   0.000000   0.000145
    20  H    0.005812   0.000001   0.000000   0.000000   0.000000  -0.000000
    21  H   -0.000623  -0.000001   0.000000  -0.000000  -0.000000   0.000000
    22  H   -0.006714   0.000001  -0.000000   0.000000   0.000000  -0.000001
    23  H    0.012455  -0.000159   0.000049  -0.000024   0.000004  -0.000023
    24  H   -0.001886  -0.000076   0.002774   0.008879   0.000451  -0.000442
    25  H   -0.055712  -0.006403   0.000608   0.000316   0.014120   0.000005
    26  H    0.444312  -0.000092   0.000022   0.000008  -0.000018  -0.000025
    27  H   -0.000386  -0.002783  -0.003010   0.000369   0.018151  -0.022067
    28  H   -0.000031   0.000012   0.000032   0.000000  -0.000001   0.005333
    29  H   -0.000001  -0.000081   0.001419   0.000001  -0.000067  -0.009878
    30  H   -0.000012   0.000001   0.000005   0.000000  -0.000001  -0.000439
    31  H    0.000921   0.000024  -0.000067  -0.000001  -0.000041  -0.001220
    32  H   -0.001513  -0.000065  -0.000347   0.000011   0.000018  -0.003509
    33  H    0.000161   0.000010   0.000034   0.000000   0.000000   0.000778
    34  H    0.003689   0.000002   0.000004  -0.000000  -0.000000   0.000005
    35  H   -0.000010  -0.000000  -0.000001   0.000000  -0.000000   0.000025
    36  H   -0.000065  -0.000000  -0.000000  -0.000000   0.000000  -0.000041
              13         14         15         16         17         18
     1  C   -0.000018   0.000005   0.000024   0.000002   0.000000   0.000150
     2  C   -0.000760   0.000131  -0.000000   0.000098  -0.000009   0.001589
     3  C    0.000214  -0.000100   0.000151  -0.000282   0.000102  -0.000594
     4  C   -0.005212   0.000176   0.000162   0.001768   0.001127   0.001211
     5  C    0.015978  -0.001458  -0.001782  -0.002271   0.002172  -0.000640
     6  C    0.003223   0.000208  -0.003832   0.000239  -0.000963   0.002400
     7  C    0.000273  -0.000174   0.000797  -0.000082   0.000024  -0.004087
     8  S    0.005456   0.001444  -0.000284   0.000835  -0.015392  -0.000131
     9  N   -0.104840   0.003639  -0.000755  -0.103375   0.340610   0.000507
    10  O   -0.000601  -0.000003   0.000005  -0.000174   0.002458  -0.000004
    11  O   -0.014508   0.002982  -0.000131  -0.000227   0.002521  -0.000046
    12  C    0.335528  -0.044797   0.004733   0.710911  -0.024582   0.002928
    13  N    6.733312   0.253758  -0.101717  -0.120243   0.008559   0.011175
    14  C    0.253758   4.860527   0.317153  -0.005053  -0.000264  -0.059590
    15  C   -0.101717   0.317153   5.121105  -0.001926   0.000051   0.276665
    16  O   -0.120243  -0.005053  -0.001926   7.871239   0.007083   0.000025
    17  H    0.008559  -0.000264   0.000051   0.007083   0.423551  -0.000013
    18  C    0.011175  -0.059590   0.276665   0.000025  -0.000013   5.025017
    19  C   -0.002352   0.013451  -0.043979   0.000310   0.000000   0.272303
    20  H   -0.000000  -0.000000  -0.000002   0.000000   0.000000   0.000009
    21  H    0.000000  -0.000000   0.000001  -0.000000  -0.000000  -0.000008
    22  H    0.000001  -0.000000  -0.000005  -0.000000   0.000000  -0.000031
    23  H    0.000006  -0.000001   0.000002  -0.000003  -0.000011  -0.000026
    24  H   -0.000070  -0.000006  -0.000008  -0.000137   0.000165   0.000018
    25  H    0.000965  -0.000279  -0.000088   0.000004  -0.000063  -0.000133
    26  H    0.000032  -0.000026   0.000062  -0.000001   0.000000  -0.000156
    27  H    0.350783  -0.021888  -0.000521   0.003815  -0.000414  -0.001106
    28  H   -0.035594   0.426650  -0.072868   0.000811   0.000021   0.012694
    29  H   -0.030843   0.414511  -0.043086   0.017040  -0.000088  -0.004299
    30  H    0.009232  -0.039062   0.390635  -0.000101  -0.000001  -0.028249
    31  H    0.004419  -0.032503   0.394335  -0.000023  -0.000002  -0.044474
    32  H    0.004354  -0.007810  -0.038702  -0.001355  -0.000014   0.420616
    33  H   -0.000472  -0.001447  -0.039353   0.001634  -0.000002   0.411305
    34  H    0.000110  -0.000299  -0.004788  -0.000012   0.000000  -0.042495
    35  H    0.000116  -0.000922   0.012385  -0.000010   0.000000  -0.051470
    36  H    0.000011   0.000057  -0.009001  -0.000005  -0.000000  -0.037487
              19         20         21         22         23         24
     1  C   -0.000204   0.426332   0.386849   0.425334  -0.007753  -0.000275
     2  C   -0.003008  -0.058101  -0.027981  -0.056267  -0.061723   0.011155
     3  C    0.000609  -0.004862  -0.002276   0.005829   0.438086  -0.048774
     4  C   -0.000086   0.001390  -0.001124  -0.000662  -0.054484   0.433165
     5  C    0.000471   0.000116   0.000437  -0.000004   0.013963  -0.067721
     6  C   -0.001530  -0.000631  -0.001440   0.002157  -0.003066   0.010820
     7  C    0.000270   0.005812  -0.000623  -0.006714   0.012455  -0.001886
     8  S    0.000009   0.000001  -0.000001   0.000001  -0.000159  -0.000076
     9  N    0.000017   0.000000   0.000000  -0.000000   0.000049   0.002774
    10  O    0.000000   0.000000  -0.000000   0.000000  -0.000024   0.008879
    11  O    0.000000   0.000000  -0.000000   0.000000   0.000004   0.000451
    12  C    0.000145  -0.000000   0.000000  -0.000001  -0.000023  -0.000442
    13  N   -0.002352  -0.000000   0.000000   0.000001   0.000006  -0.000070
    14  C    0.013451  -0.000000  -0.000000  -0.000000  -0.000001  -0.000006
    15  C   -0.043979  -0.000002   0.000001  -0.000005   0.000002  -0.000008
    16  O    0.000310   0.000000  -0.000000  -0.000000  -0.000003  -0.000137
    17  H    0.000000   0.000000  -0.000000   0.000000  -0.000011   0.000165
    18  C    0.272303   0.000009  -0.000008  -0.000031  -0.000026   0.000018
    19  C    4.959539   0.000066   0.000011   0.000207   0.000017  -0.000003
    20  H    0.000066   0.557753  -0.025074  -0.026465   0.001926  -0.000026
    21  H    0.000011  -0.025074   0.564171  -0.026627   0.000689   0.000005
    22  H    0.000207  -0.026465  -0.026627   0.558196   0.000017   0.000013
    23  H    0.000017   0.001926   0.000689   0.000017   0.550164  -0.007344
    24  H   -0.000003  -0.000026   0.000005   0.000013  -0.007344   0.533530
    25  H    0.000019   0.000011   0.000009  -0.000022   0.000056  -0.000146
    26  H    0.000018   0.000019   0.000701   0.001664  -0.000153   0.000052
    27  H    0.000087  -0.000000   0.000000  -0.000000  -0.000000  -0.000019
    28  H   -0.000922  -0.000000   0.000000   0.000000  -0.000000   0.000000
    29  H   -0.000065   0.000000   0.000000  -0.000000  -0.000000   0.000002
    30  H   -0.007488  -0.000000   0.000000   0.000000   0.000000  -0.000000
    31  H   -0.006023   0.000000  -0.000000   0.000002   0.000001   0.000001
    32  H   -0.039411  -0.000003   0.000002   0.000015  -0.000019  -0.000052
    33  H   -0.043588   0.000001   0.000000   0.000002   0.000001  -0.000000
    34  H    0.404024  -0.000038   0.000022   0.000432   0.000007  -0.000000
    35  H    0.417035   0.000019   0.000010  -0.000052   0.000002   0.000000
    36  H    0.405788  -0.000003   0.000000  -0.000010  -0.000000   0.000000
              25         26         27         28         29         30
     1  C   -0.000263  -0.007337   0.000001  -0.000000  -0.000000  -0.000002
     2  C    0.008629  -0.060905   0.000075   0.000002  -0.000004   0.000000
     3  C   -0.002395   0.011996  -0.000038   0.000000   0.000001   0.000004
     4  C    0.008471  -0.003264   0.000082  -0.000009   0.000008  -0.000019
     5  C   -0.038224   0.012950  -0.001720   0.000097   0.000149   0.000019
     6  C    0.426878  -0.058167   0.000682   0.000014  -0.000066   0.000096
     7  C   -0.055712   0.444312  -0.000386  -0.000031  -0.000001  -0.000012
     8  S   -0.006403  -0.000092  -0.002783   0.000012  -0.000081   0.000001
     9  N    0.000608   0.000022  -0.003010   0.000032   0.001419   0.000005
    10  O    0.000316   0.000008   0.000369   0.000000   0.000001   0.000000
    11  O    0.014120  -0.000018   0.018151  -0.000001  -0.000067  -0.000001
    12  C    0.000005  -0.000025  -0.022067   0.005333  -0.009878  -0.000439
    13  N    0.000965   0.000032   0.350783  -0.035594  -0.030843   0.009232
    14  C   -0.000279  -0.000026  -0.021888   0.426650   0.414511  -0.039062
    15  C   -0.000088   0.000062  -0.000521  -0.072868  -0.043086   0.390635
    16  O    0.000004  -0.000001   0.003815   0.000811   0.017040  -0.000101
    17  H   -0.000063   0.000000  -0.000414   0.000021  -0.000088  -0.000001
    18  C   -0.000133  -0.000156  -0.001106   0.012694  -0.004299  -0.028249
    19  C    0.000019   0.000018   0.000087  -0.000922  -0.000065  -0.007488
    20  H    0.000011   0.000019  -0.000000  -0.000000   0.000000  -0.000000
    21  H    0.000009   0.000701   0.000000   0.000000   0.000000   0.000000
    22  H   -0.000022   0.001664  -0.000000   0.000000  -0.000000   0.000000
    23  H    0.000056  -0.000153  -0.000000  -0.000000  -0.000000   0.000000
    24  H   -0.000146   0.000052  -0.000019   0.000000   0.000002  -0.000000
    25  H    0.503818  -0.006269   0.000599   0.000041   0.000007   0.000012
    26  H   -0.006269   0.547000  -0.000013  -0.000001   0.000001   0.000000
    27  H    0.000599  -0.000013   0.431679  -0.008255   0.004844  -0.000091
    28  H    0.000041  -0.000001  -0.008255   0.584719  -0.021579  -0.002827
    29  H    0.000007   0.000001   0.004844  -0.021579   0.533094   0.000391
    30  H    0.000012   0.000000  -0.000091  -0.002827   0.000391   0.612110
    31  H    0.000912   0.000254   0.002148  -0.002246   0.006395  -0.029067
    32  H   -0.000090  -0.000040   0.000548  -0.000492   0.000889   0.007344
    33  H    0.000005   0.000011   0.000009   0.000229   0.002738  -0.005507
    34  H   -0.000037   0.001083  -0.000009   0.000042  -0.000032   0.000002
    35  H    0.000003  -0.000029  -0.000001   0.000022   0.000029  -0.000011
    36  H    0.000002  -0.000006   0.000002  -0.000019   0.000063   0.005333
              31         32         33         34         35         36
     1  C   -0.000036  -0.000175  -0.000009  -0.000745  -0.000003  -0.000015
     2  C   -0.000232   0.001276  -0.000137  -0.001492  -0.000033   0.000192
     3  C   -0.000028   0.000161   0.000035   0.000594   0.000107  -0.000020
     4  C   -0.000021  -0.000714  -0.000025  -0.000304  -0.000010   0.000007
     5  C    0.000413  -0.001497   0.000097   0.000371  -0.000020  -0.000029
     6  C    0.000920   0.001476  -0.000146  -0.000957   0.000141   0.000065
     7  C    0.000921  -0.001513   0.000161   0.003689  -0.000010  -0.000065
     8  S    0.000024  -0.000065   0.000010   0.000002  -0.000000  -0.000000
     9  N   -0.000067  -0.000347   0.000034   0.000004  -0.000001  -0.000000
    10  O   -0.000001   0.000011   0.000000  -0.000000   0.000000  -0.000000
    11  O   -0.000041   0.000018   0.000000  -0.000000  -0.000000   0.000000
    12  C   -0.001220  -0.003509   0.000778   0.000005   0.000025  -0.000041
    13  N    0.004419   0.004354  -0.000472   0.000110   0.000116   0.000011
    14  C   -0.032503  -0.007810  -0.001447  -0.000299  -0.000922   0.000057
    15  C    0.394335  -0.038702  -0.039353  -0.004788   0.012385  -0.009001
    16  O   -0.000023  -0.001355   0.001634  -0.000012  -0.000010  -0.000005
    17  H   -0.000002  -0.000014  -0.000002   0.000000   0.000000  -0.000000
    18  C   -0.044474   0.420616   0.411305  -0.042495  -0.051470  -0.037487
    19  C   -0.006023  -0.039411  -0.043588   0.404024   0.417035   0.405788
    20  H    0.000000  -0.000003   0.000001  -0.000038   0.000019  -0.000003
    21  H   -0.000000   0.000002   0.000000   0.000022   0.000010   0.000000
    22  H    0.000002   0.000015   0.000002   0.000432  -0.000052  -0.000010
    23  H    0.000001  -0.000019   0.000001   0.000007   0.000002  -0.000000
    24  H    0.000001  -0.000052  -0.000000  -0.000000   0.000000   0.000000
    25  H    0.000912  -0.000090   0.000005  -0.000037   0.000003   0.000002
    26  H    0.000254  -0.000040   0.000011   0.001083  -0.000029  -0.000006
    27  H    0.002148   0.000548   0.000009  -0.000009  -0.000001   0.000002
    28  H   -0.002246  -0.000492   0.000229   0.000042   0.000022  -0.000019
    29  H    0.006395   0.000889   0.002738  -0.000032   0.000029   0.000063
    30  H   -0.029067   0.007344  -0.005507   0.000002  -0.000011   0.005333
    31  H    0.625762  -0.004135   0.008116   0.004552  -0.000143   0.000236
    32  H   -0.004135   0.584590  -0.027692  -0.006380  -0.004706   0.008578
    33  H    0.008116  -0.027692   0.600420   0.008399  -0.004615  -0.005949
    34  H    0.004552  -0.006380   0.008399   0.601295  -0.027518  -0.031020
    35  H   -0.000143  -0.004706  -0.004615  -0.027518   0.574706  -0.024948
    36  H    0.000236   0.008578  -0.005949  -0.031020  -0.024948   0.585474
 Mulliken charges:
               1
     1  C   -0.356434
     2  C    0.170709
     3  C   -0.172171
     4  C   -0.148741
     5  C    0.029006
     6  C   -0.141771
     7  C   -0.179469
     8  S    0.835022
     9  N   -0.296635
    10  O   -0.441637
    11  O   -0.475301
    12  C    0.309747
    13  N   -0.320278
    14  C   -0.079012
    15  C   -0.155438
    16  O   -0.380533
    17  H    0.253375
    18  C   -0.163575
    19  C   -0.325739
    20  H    0.121752
    21  H    0.132245
    22  H    0.122988
    23  H    0.117345
    24  H    0.125957
    25  H    0.144638
    26  H    0.116317
    27  H    0.248447
    28  H    0.114127
    29  H    0.128507
    30  H    0.087691
    31  H    0.070850
    32  H    0.108846
    33  H    0.094959
    34  H    0.091493
    35  H    0.109902
    36  H    0.102810
 Sum of Mulliken charges =  -0.00000
 Mulliken charges with hydrogens summed into heavy atoms:
               1
     1  C    0.020551
     2  C    0.170709
     3  C   -0.054825
     4  C   -0.022784
     5  C    0.029006
     6  C    0.002867
     7  C   -0.063152
     8  S    0.835022
     9  N   -0.043259
    10  O   -0.441637
    11  O   -0.475301
    12  C    0.309747
    13  N   -0.071831
    14  C    0.163622
    15  C    0.003102
    16  O   -0.380533
    18  C    0.040231
    19  C   -0.021533
 Electronic spatial extent (au):  <R**2>=           4935.7403
 Charge=             -0.0000 electrons
 Dipole moment (field-independent basis, Debye):
    X=             -4.6151    Y=              1.2737    Z=             -0.7621  Tot=              4.8480
 Quadrupole moment (field-independent basis, Debye-Ang):
   XX=           -113.0078   YY=           -121.9099   ZZ=           -116.8744
   XY=              6.7761   XZ=             -1.6231   YZ=            -11.2991
 Traceless Quadrupole moment (field-independent basis, Debye-Ang):
   XX=              4.2562   YY=             -4.6458   ZZ=              0.3896
   XY=              6.7761   XZ=             -1.6231   YZ=            -11.2991
 Octapole moment (field-independent basis, Debye-Ang**2):
  XXX=            -12.7926  YYY=             40.6982  ZZZ=             -4.5549  XYY=             -6.5404
  XXY=             -9.1410  XXZ=              2.2681  XZZ=             -7.9009  YZZ=            -18.4374
  YYZ=              1.8143  XYZ=            -15.8449
 Hexadecapole moment (field-independent basis, Debye-Ang**3):
 XXXX=          -3026.0943 YYYY=          -2846.1164 ZZZZ=           -719.1889 XXXY=             36.1214
 XXXZ=             -1.2703 YYYX=             67.2178 YYYZ=             -4.6360 ZZZX=            -12.0479
 ZZZY=            -45.4065 XXYY=          -1031.7341 XXZZ=           -640.0087 YYZZ=           -583.0497
 XXYZ=            -50.6700 YYXZ=            -24.6454 ZZXY=            -19.7148
 N-N= 1.585796509423D+03 E-N=-5.990469140979D+03  KE= 1.197032037777D+03
   1 Symmetry operations used in ECPInt.
 ECPInt:  NShTT=   37128 NPrTT=  113514 LenC2=   33785 LenP2D=   73875.
 LDataN:  DoStor=T MaxTD1= 7 Len=  274
 Calling FoFJK, ICntrl=      2127 FMM=F ISym2X=0 I1Cent= 0 IOpClX= 0 NMat=1 NMatS=1 NMatT=0.
 ***** Axes restored to original set *****
 -------------------------------------------------------------------
 Center     Atomic                   Forces (Hartrees/Bohr)
 Number     Number              X              Y              Z
 -------------------------------------------------------------------
      1        6          -0.001057763    0.005236791    0.002519147
      2        6           0.000456096   -0.002290156   -0.002653294
      3        6           0.008273552    0.001517680   -0.004214247
      4        6          -0.005663162    0.000529998    0.000443351
      5        6          -0.006137346   -0.001023168   -0.005377959
      6        6          -0.004092684    0.000575600    0.000269736
      7        6           0.005601878   -0.002625446    0.005613178
      8       16          -0.009669157   -0.011020228   -0.007706354
      9        7           0.010710240   -0.023761434    0.001486597
     10        8           0.004098492    0.016541038   -0.002585947
     11        8          -0.001081868   -0.005873328    0.008957436
     12        6           0.000474635    0.029813311    0.001878695
     13        7           0.005776765   -0.018352269   -0.001021241
     14        6           0.000331135    0.005125342   -0.008104721
     15        6           0.000205461    0.002014228    0.006332994
     16        8          -0.000557317   -0.002673070   -0.001733968
     17        1          -0.001445644    0.004305812   -0.001982856
     18        6          -0.001866654    0.000939280   -0.002897977
     19        6          -0.003863899    0.000085722    0.003052346
     20        1          -0.000489514   -0.002641159   -0.002788789
     21        1          -0.001878944    0.001910046    0.000900472
     22        1          -0.000450102   -0.003961570   -0.000087139
     23        1           0.001215718    0.001858651   -0.003359720
     24        1          -0.001059104    0.001477037   -0.003622092
     25        1           0.000523669   -0.002434457    0.004873274
     26        1           0.001358220   -0.001238462    0.003414129
     27        1          -0.001143840    0.007623982    0.011231771
     28        1          -0.000081506    0.001978347    0.002013567
     29        1          -0.000553920   -0.005234685   -0.001756290
     30        1           0.000232948   -0.001008840   -0.000607079
     31        1           0.001008683    0.001454774    0.000457241
     32        1           0.002221550    0.002285778    0.000043989
     33        1           0.001216334   -0.002157986   -0.001320165
     34        1          -0.000410650    0.001398754    0.000810656
     35        1          -0.001039210    0.001069175   -0.002336935
     36        1          -0.001163091   -0.001445089   -0.000141806
 -------------------------------------------------------------------
 Cartesian Forces:  Max     0.029813311 RMS     0.005726486

 GradGradGradGradGradGradGradGradGradGradGradGradGradGradGradGradGradGrad
 Berny optimization.
 FormGI is forming the generalized inverse of G from B-inverse, IUseBI=4.
 Internal  Forces:  Max     0.022614443 RMS     0.004308232
 Search for a local minimum.
 Step number   1 out of a maximum of  192
 All quantities printed in internal units (Hartrees-Bohrs-Radians)
 Mixed Optimization -- RFO/linear search
 Second derivative matrix not updated -- first step.
 ITU=  0
     Eigenvalues ---    0.00364   0.00388   0.00491   0.00689   0.00752
     Eigenvalues ---    0.01086   0.01511   0.01546   0.01599   0.01870
     Eigenvalues ---    0.01898   0.02049   0.02057   0.02079   0.02103
     Eigenvalues ---    0.02110   0.02126   0.02132   0.02137   0.02140
     Eigenvalues ---    0.02221   0.03530   0.03714   0.04306   0.04854
     Eigenvalues ---    0.04913   0.05506   0.05602   0.05700   0.07304
     Eigenvalues ---    0.07321   0.08153   0.08368   0.09462   0.10812
     Eigenvalues ---    0.10923   0.12056   0.12230   0.12684   0.12826
     Eigenvalues ---    0.15547   0.15965   0.16000   0.16000   0.16000
     Eigenvalues ---    0.16000   0.16000   0.16000   0.16000   0.16000
     Eigenvalues ---    0.16000   0.16000   0.18659   0.21903   0.21934
     Eigenvalues ---    0.21972   0.21998   0.22008   0.22159   0.22973
     Eigenvalues ---    0.23992   0.24968   0.24997   0.24999   0.25000
     Eigenvalues ---    0.25000   0.28112   0.29385   0.29557   0.30294
     Eigenvalues ---    0.32269   0.34005   0.34040   0.34113   0.34217
     Eigenvalues ---    0.34225   0.34227   0.34242   0.34260   0.34283
     Eigenvalues ---    0.34284   0.34297   0.34324   0.34995   0.35011
     Eigenvalues ---    0.35115   0.35135   0.38801   0.41852   0.41877
     Eigenvalues ---    0.41972   0.43458   0.45176   0.45547   0.45771
     Eigenvalues ---    0.46176   0.46354   0.47929   0.52946   0.95011
     Eigenvalues ---    0.96394   0.97958
 RFO step:  Lambda=-1.31786360D-02 EMin= 3.63576669D-03
 Linear search not attempted -- first point.
 Iteration  1 RMS(Cart)=  0.36975675 RMS(Int)=  0.00884883
 Iteration  2 RMS(Cart)=  0.07115539 RMS(Int)=  0.00050938
 Iteration  3 RMS(Cart)=  0.00094191 RMS(Int)=  0.00043206
 Iteration  4 RMS(Cart)=  0.00000084 RMS(Int)=  0.00043206
 Variable       Old X    -DE/DX   Delta X   Delta X   Delta X     New X
[...]
 48316,-0.00125247,0.00026064,0.00079419,-0.00000806,-0.00000580,0.0000
 0796,-0.00000605,0.00000124,0.00000017,-0.00000015,0.00000031,-0.00000
 675,-0.00000167,-0.00000886,0.00000324,-0.00000403,-0.00001159,0.00000
 729,0.00000203,0.00013216,0.00004808,0.00002748,0.00000652,-0.00001490
 ,-0.00059130,0.00058874,-0.00048300,-0.00040001,0.00036409,0.00061803,
 -0.00188085,0.00071456,0.00081732,0.00131271,0.00111210,0.00460614,0.0
 5721801,0.09809860,0.26188409,0.00000089,-0.00001468,0.00000819,-0.000
 02421,-0.00003387,0.00008571,-0.00006084,0.00001681,0.00000171,0.00000
 928,0.00005221,-0.00008539,-0.00005664,-0.00006792,-0.00002694,0.00004
 599,0.00001197,-0.00001998,0.00001868,0.00003209,0.00002821,0.00031129
 ,0.00051418,0.00030070,-0.00010330,-0.00044607,-0.00021376,-0.00005759
 ,-0.00015595,-0.00002766,-0.00007906,-0.00014675,-0.00007083,-0.000872
 90,0.00134714,-0.00041752,0.00065488,0.00054850,-0.00002719,0.00078154
 ,-0.00154427,-0.00002561,-0.00573054,-0.02614521,0.00502639,0.00026597
 ,-0.00016797,0.00010090,-0.00001070,0.00002202,-0.00002107,-0.05274771
 ,-0.03671926,0.00658882,0.00250380,0.03029812,-0.00581554,-0.00000776,
 -0.00000574,0.00000104,-0.00000787,0.00000857,0.00000104,-0.00001800,-
 0.00000121,-0.00001115,-0.00000922,-0.00000220,-0.00000337,0.00000687,
 0.00000790,-0.00000258,0.00003937,-0.00001676,0.00002397,-0.00005378,-
 0.00003152,-0.00006512,-0.00015093,0.00015686,0.00014811,0.00028202,0.
 00015775,-0.00006833,-0.00014490,-0.00000878,-0.00004158,-0.00380066,-
 0.00004094,0.00368777,0.00097212,0.00073264,-0.00037000,0.06184629,0.0
 0000098,-0.00000955,-0.00000128,0.00005312,0.00003691,-0.00004023,-0.0
 0000235,-0.00000727,-0.00001359,0.00001812,0.00002154,-0.00000076,-0.0
 0003803,-0.00002088,-0.00004794,0.00003857,-0.00009573,-0.00002892,-0.
 00000837,-0.00008979,-0.00002559,-0.00017584,0.00010981,0.00017292,0.0
 0001618,-0.00002557,-0.00011368,0.00006680,-0.00006937,-0.00001609,0.0
 0006165,0.00001753,-0.00008941,-0.00007547,0.00029701,0.00026974,0.001
 28582,0.00042117,-0.00049264,0.00026766,-0.00098984,0.00053602,-0.0023
 4125,-0.00305825,0.00109832,0.00018396,-0.00011169,-0.00035433,-0.0000
 2019,0.00002389,-0.00001126,-0.03701046,-0.28682498,0.04426172,-0.0005
 5365,-0.01281336,0.00237088,0.00000156,0.00000897,0.00000196,-0.000006
 50,-0.00000979,-0.00000254,0.00000761,0.00000809,0.00000652,0.00000154
 ,0.00000620,0.00001304,-0.00000222,0.00000191,0.00000254,-0.00008741,-
 0.00008011,-0.00002388,0.00002997,0.00002055,0.00004151,-0.00001848,0.
 00001935,0.00004681,-0.00019230,0.00011570,-0.00005053,-0.00008563,-0.
 00004028,0.00004276,0.00005741,0.00137670,0.00063456,-0.00020173,0.000
 54923,0.00045732,0.03821038,0.31371773,0.00000067,0.00000852,-0.000003
 43,-0.00004566,-0.00004945,0.00006580,-0.00003045,0.00003320,-0.000061
 06,0.00000924,0.00003037,-0.00007997,0.00007632,-0.00004611,0.00004918
 ,-0.00010346,-0.00000748,0.00015330,0.00000281,0.00007732,-0.00002229,
 0.00030355,0.00000589,0.00026366,-0.00007008,-0.00016977,-0.00013886,-
 0.00008615,0.00001576,-0.00005675,-0.00010036,0.00003761,-0.00006562,0
 .00002838,0.00008124,0.00116730,-0.00063772,-0.00030770,-0.00016059,-0
 .00062775,0.00034308,0.00042025,0.00478731,0.02242887,-0.00494788,0.00
 018345,-0.00028481,-0.00060229,-0.00002058,0.00000513,0.00002022,0.006
 46544,0.04349206,-0.05815052,0.00087889,0.01198123,-0.00261638,0.00001
 308,0.00000849,-0.00001042,0.00000872,0.00000121,-0.00000260,-0.000001
 70,-0.00000229,0.00000634,-0.00000074,0.00001478,-0.00000366,0.0000050
 9,0.00001208,-0.00001031,0.00005199,-0.00014472,-0.00022591,-0.0000538
 4,-0.00002728,-0.00001922,0.00025510,-0.00004262,-0.00004761,-0.000170
 88,-0.00004656,-0.00002809,0.00006889,-0.00014822,0.00000987,0.0035932
 7,0.00062697,-0.00221515,-0.00084335,0.00010259,0.00061633,-0.00858362
 ,-0.05100483,0.06071799,-0.00000452,0.00000702,-0.00000817,0.00002614,
 0.00000668,-0.00001270,0.00000764,-0.00000051,0.00001149,0.00000397,-0
 .00000799,0.00001548,0.00000010,0.00000399,-0.00002009,0.00000150,-0.0
 0001873,0.00000543,-0.00002865,0.00000390,-0.00003188,-0.00007664,-0.0
 0001749,0.00005318,0.00000939,-0.00000931,-0.00002335,0.00002343,-0.00
 000687,-0.00000744,0.00002347,0.00002042,-0.00004347,-0.00001915,0.000
 07396,0.00015580,-0.00013066,0.00010845,-0.00025486,0.00195151,0.00025
 947,0.00094379,0.00412398,0.01204095,0.02395459,-0.00004218,-0.0000458
 1,-0.00010956,0.00000278,0.00000196,-0.00000728,-0.06187417,-0.0275295
 7,-0.05270798,-0.00925375,-0.01257912,-0.02586715,-0.00000190,-0.00000
 473,0.00000515,-0.00000139,-0.00000137,0.00000116,0.00000515,-0.000000
 48,-0.00000133,0.00000090,-0.00000585,0.00000192,0.00000012,-0.0000029
 3,-0.00000005,-0.00003173,0.00000113,0.00001860,0.00002447,0.00001936,
 0.00001642,0.00003286,-0.00010364,0.00006457,0.00025847,-0.00024241,-0
 .00017195,-0.00022048,-0.00010122,-0.00061433,0.00100787,-0.00005567,-
 0.00087504,-0.00382303,-0.00032971,0.00380575,-0.00139056,-0.00229036,
 -0.00412574,0.07200333,0.00000188,-0.00000549,-0.00000096,0.00004308,0
 .00004493,-0.00005138,0.00002247,-0.00001681,0.00003367,-0.00000225,-0
 .00001669,0.00004714,-0.00003407,0.00003639,-0.00002563,0.00004114,-0.
 00001698,-0.00008760,0.00001819,-0.00007297,0.00000159,-0.00030485,-0.
 00007815,-0.00024249,0.00012169,0.00028277,0.00025390,0.00007553,0.000
 03249,0.00005078,0.00008820,-0.00000030,0.00006270,-0.00013484,-0.0004
 8531,-0.00165154,0.00074617,-0.00040749,0.00067276,-0.00021587,0.00019
 560,-0.00055248,0.00097506,0.00142601,0.00385551,-0.00029096,0.0005975
 4,0.00088161,0.00000641,-0.00002602,-0.00001995,-0.02752692,-0.0985744
 6,-0.09585486,0.00428675,0.00607127,0.01298830,-0.00000800,-0.00000427
 ,0.00000667,-0.00000642,-0.00000150,0.00000201,0.00000204,0.00000212,-
 0.00000216,0.00000029,-0.00001091,0.00000211,-0.00000406,-0.00001070,0
 .00000634,-0.00004240,0.00005311,0.00010895,0.00003171,0.00001679,0.00
 002142,-0.00018138,0.00000097,0.00001658,0.00012907,-0.00004670,0.0001
 6391,0.00035519,-0.00000241,-0.00003054,0.00071276,0.00067288,0.000184
 38,-0.00048238,0.00121982,0.00105642,-0.00798022,-0.01440870,-0.027762
 06,0.02832092,0.10243879,-0.00000241,0.00000264,-0.00000300,0.00001002
 ,0.00000104,-0.00000026,-0.00000032,-0.00000294,0.00000534,0.00000594,
 -0.00000450,0.00000899,-0.00000871,-0.00000014,0.00002550,0.00002476,0
 .00000899,-0.00003081,-0.00001760,0.00000031,-0.00000088,-0.00006129,0
 .00001406,-0.00016696,0.00003242,0.00008019,0.00013047,0.00002148,-0.0
 0000032,0.00003767,0.00001938,-0.00003817,0.00008636,-0.00000959,-0.00
 019715,-0.00078636,0.00024532,-0.00016584,0.00037373,-0.00120809,0.000
 30824,0.00066028,-0.00343167,-0.01011456,-0.02133319,-0.00015046,0.000
 34530,0.00039298,-0.00000332,-0.00001143,-0.00001020,-0.05213087,-0.09
 509306,-0.23539458,-0.00372002,-0.00428686,-0.00948541,-0.00000148,-0.
 00000223,0.00000372,-0.00000083,-0.00000065,-0.00000040,0.00000303,-0.
 00000050,-0.00000101,-0.00000067,-0.00000392,0.00000147,-0.00000041,-0
 .00000365,0.00000094,-0.00000514,0.00002474,-0.00000355,0.00001424,0.0
 0000763,0.00000009,-0.00012650,0.00011022,-0.00008712,-0.00000301,0.00
 023233,0.00035833,0.00084647,-0.00028645,0.00055681,-0.00045496,0.0005
 0735,0.00062975,0.00360224,0.00093965,-0.00183114,0.00141893,0.0016091
 9,0.00548722,0.05664006,0.10440135,0.25902606,0.00000676,-0.00001394,0
 .00000937,0.00000664,0.00001315,-0.00001212,0.00000221,-0.00000985,0.0
 0000890,-0.00000045,-0.00000793,0.00001363,-0.00003076,-0.00000174,0.0
 0002032,0.00005362,0.00003084,-0.00006059,-0.00000348,-0.00001502,0.00
 003644,-0.00003063,-0.00001342,-0.00013479,0.00001974,0.00007044,0.000
 07366,0.00000737,0.00000734,0.00002483,0.00001373,-0.00002086,0.000063
 18,0.00001451,-0.00014553,-0.00032459,0.00000781,-0.00004046,0.0001462
 3,-0.00001982,0.00033768,0.00012707,0.00169218,-0.00105096,-0.00147369
 ,-0.00007291,0.00014123,0.00019045,0.00000296,-0.00000474,-0.00000217,
 -0.00895962,-0.01331633,-0.02511367,-0.06542625,-0.03059883,-0.0580252
 7,-0.00000411,0.00000114,-0.00000012,-0.00000339,0.00000272,-0.0000004
 2,-0.00000527,-0.00000004,-0.00000257,0.,-0.00000174,0.00000036,-0.000
 00238,-0.00000339,0.00000316,-0.00002898,0.00003974,0.00001350,0.00002
 277,-0.00001214,-0.00001331,-0.00005742,0.00001774,-0.00003478,-0.0000
 0391,0.00003054,0.00008857,0.00021908,-0.00003532,0.00016792,-0.000110
 51,-0.00000502,0.00004862,-0.00022175,0.00028198,0.00090934,0.00127034
 ,-0.00002759,0.00066203,-0.00469474,0.00277190,-0.00170341,0.07095906,
 0.00000019,0.00000436,0.00000017,-0.00003416,-0.00001310,0.00002390,-0
 .00000864,0.00000513,-0.00000857,0.00000009,0.00001247,-0.00001787,0.0
 0000641,-0.00000132,0.00001304,-0.00000917,0.00000282,0.00002180,0.000
 02103,0.00001867,0.00001588,0.00011857,0.00000242,-0.00001687,-0.00003
 090,-0.00003511,-0.00001212,-0.00003653,0.00001313,-0.00000036,-0.0000
 3797,-0.00001085,0.00002621,0.00003216,0.00004484,0.00007839,-0.000083
 03,-0.00002969,-0.00003601,-0.00003158,0.00005837,0.00028543,-0.000534
 99,0.00023914,0.00021646,0.00000222,-0.00004453,-0.00003941,0.00000646
 ,-0.00000121,0.00000255,0.00405642,0.00646655,0.01281746,-0.03114929,-
 0.09779449,-0.09698365,0.00000234,-0.00000167,-0.00000184,0.00000333,0
 .00000507,-0.00000061,-0.00000569,-0.00000485,-0.00000225,-0.00000183,
 0.00000222,-0.00000442,0.00000195,0.00000086,-0.00000351,0.00003163,-0
 .00002601,-0.00002976,-0.00003540,-0.00004950,-0.00002186,0.00002232,0
 .00000133,-0.00000806,-0.00006682,0.00000334,-0.00004635,0.00003123,-0
 .00005221,-0.00005490,0.00000413,-0.00005427,-0.00014160,-0.00028465,0
 .00012828,-0.00013915,-0.00078666,0.00081569,0.00017325,0.00298619,-0.
 00009109,0.00121661,0.03189546,0.10277257,-0.00001344,0.00002295,-0.00
 001925,0.00006510,0.00000180,-0.00002902,0.00002550,-0.00001018,0.0000
 2706,0.00002135,-0.00003830,0.00005658,0.00002505,0.00001423,0.0000178
 8,0.00003076,0.00001467,-0.00002996,-0.00012341,0.00002085,-0.00010502
 ,-0.00035537,-0.00022444,-0.00018637,0.00010114,0.00031147,0.00012458,
 0.00009089,0.00005113,0.00003276,0.00010653,0.00007562,0.00003359,0.00
 003406,-0.00044671,-0.00009307,-0.00004946,0.00015556,-0.00002066,0.00
 009256,0.00006500,0.00033121,0.00097455,0.00009666,0.00064758,-0.00007
 228,0.00022017,0.00012188,-0.00000146,0.00000139,-0.00000371,-0.003624
 17,-0.00475648,-0.01098271,-0.05875136,-0.09663184,-0.23383323,-0.0000
 0043,-0.00000895,0.00001155,0.00000107,-0.00000776,0.00000109,0.000021
 00,-0.00000004,0.00000009,0.00000620,-0.00001104,0.00000678,-0.0000043
 3,-0.00000976,0.00000457,-0.00007411,0.00003043,0.00002157,0.00009763,
 0.00005631,0.00007333,-0.00004442,-0.00004751,-0.00004578,-0.00008337,
 0.00006118,0.00002335,0.00023556,-0.00008114,-0.00001684,-0.00001617,0
 .00001752,0.00000916,-0.00060734,0.00004275,0.00074676,0.00024906,0.00
 037036,0.00011070,-0.00199846,0.00170888,0.00058588,0.06751735,0.10650
 538,0.25499508,-0.00000128,0.00001411,-0.00000362,-0.00000814,-0.00000
 863,-0.00000943,0.00001761,-0.00000072,-0.00001042,0.00001398,-0.00001
 804,0.00002250,0.00004515,0.00002014,0.00000907,-0.00002989,0.00000544
 ,0.00000871,0.00001028,-0.00000265,-0.00003871,-0.00031338,-0.00034470
 ,-0.00007030,0.00007591,0.00039637,0.00000973,0.00005519,0.00011278,-0
 .00000322,0.00009123,0.00015988,-0.00002330,0.00008482,-0.00050899,0.0
 0082059,-0.00003357,0.00048576,-0.00046493,-0.00079940,-0.00096417,0.0
 0170404,-0.00381236,0.00331318,-0.00432982,0.00000699,0.00008008,-0.00
 038010,-0.00000366,0.00001722,0.00002319,-0.02031398,-0.00402550,0.019
 33144,-0.18812681,-0.02280010,0.12737772,0.00000909,0.00000882,-0.0000
 0565,0.00000953,-0.00000767,-0.00000298,0.00001218,-0.00000096,0.00001
 203,0.00000561,0.00000645,-0.00000004,-0.00000616,-0.00000255,0.000004
 27,-0.00002016,-0.00000583,-0.00001190,0.00001556,0.00000716,0.0000283
 2,0.00001248,-0.00006971,-0.00006958,-0.00063098,0.00030246,-0.0001679
 7,0.00005650,-0.00003031,0.00001259,0.00030055,-0.00005748,-0.00024572
 ,0.00024562,0.00014329,0.00004165,0.00121267,0.00031221,0.00014800,0.0
 0078980,-0.00079791,-0.00021677,0.00732406,0.00187934,-0.00583658,0.20
 662614,0.00000838,-0.00001127,0.00001375,-0.00001884,-0.00000521,0.000
 02008,-0.00000971,-0.00000611,0.00000818,-0.00000800,0.00000913,-0.000
 01455,-0.00002946,-0.00000472,0.00000671,0.00004017,0.00001580,-0.0000
 1472,0.00000664,0.00001855,0.00004789,0.00019202,0.00008445,-0.0000062
 1,-0.00004194,-0.00011430,-0.00001665,-0.00005171,-0.00001070,-0.00000
 064,-0.00005348,-0.00004992,0.00002863,-0.00001418,0.00015468,-0.00013
 447,-0.00015634,-0.00001197,0.00003148,0.00073871,0.00070660,-0.000466
 29,0.00190572,-0.00101020,0.00158127,-0.00002024,-0.00004514,0.0000607
 4,0.00001236,-0.00000546,-0.00000051,0.01032014,0.00074534,-0.01030694
 ,-0.02345809,-0.05084591,0.02073668,-0.00000570,-0.00000722,-0.0000002
 5,-0.00000417,0.00001256,0.00000143,-0.00001907,-0.00000752,-0.0000142
 7,-0.00000191,-0.00000019,-0.00000389,0.00000122,0.00000057,-0.0000013
 1,0.00000690,0.00000376,-0.00000569,-0.00001744,-0.00002377,-0.0000515
 7,0.00000122,0.00002031,0.00001195,0.00027497,-0.00015046,0.00008555,0
 .00001129,0.00000032,-0.00000357,0.00034171,0.00034791,-0.00011708,-0.
 00021636,-0.00005426,0.00030683,-0.00045164,0.00032835,-0.00059705,-0.
 00064221,0.00035599,0.00010678,0.01169685,0.00133797,-0.00968611,0.023
 37163,0.05115140,0.00001421,-0.00002967,0.00002267,0.00001708,0.000014
 33,0.00000090,-0.00001614,-0.00000768,0.00000442,-0.00001071,0.0000086
 2,-0.00001461,-0.00005528,-0.00001038,0.00000032,0.00004729,0.00001529
 ,-0.00003120,0.00001084,-0.00001012,0.00006756,0.00015529,0.00013959,-
 0.00000274,-0.00004212,-0.00013467,-0.00002802,-0.00003421,-0.00004078
 ,0.00000473,-0.00004054,-0.00006481,0.00003223,-0.00001253,0.00020517,
 -0.00007100,0.00008779,-0.00014909,0.00005538,-0.00068361,0.00021850,0
 .00062627,-0.00158684,0.00085930,-0.00061961,0.00001924,-0.00007289,0.
 00000615,0.00000068,0.00000097,-0.00000211,-0.01074520,-0.00198306,0.0
 0896757,0.12884055,0.02034936,-0.16276953,-0.00000593,-0.00000232,0.00
 000183,-0.00001067,0.00001179,-0.00000061,-0.00001753,-0.00000145,-0.0
 0001741,-0.00000136,-0.00000068,-0.00000008,-0.00000006,0.00000224,0.0
 0000108,-0.00000502,0.00001800,0.00000572,-0.00000220,-0.00001692,-0.0
 0005203,-0.00002490,0.00002877,0.00000295,-0.00020154,0.00007330,-0.00
 005318,0.00010803,-0.00005974,0.00001651,-0.00005104,-0.00004943,-0.00
 012518,-0.00019944,0.00023806,0.00036560,0.00067969,-0.00047328,0.0004
 1707,0.00057735,-0.00038781,0.00073160,0.02018824,0.00415258,-0.018241
 01,-0.13976237,-0.02345576,0.17446813,-0.00000971,0.00001460,-0.000012
 46,0.00000599,-0.00000769,-0.00000737,0.00001049,0.00000091,0.00000032
 ,0.00000707,-0.00001669,0.00002101,0.00003552,0.00000364,0.00002422,-0
 .00001130,0.00001398,0.00000622,-0.00004936,0.00001281,-0.00004870,-0.
 00008386,-0.00010148,-0.00007454,0.00003233,0.00007854,0.00006030,0.00
 002265,0.00002272,0.00000935,0.00002363,0.00002237,0.00001781,0.000128
 76,-0.00025452,-0.00000242,-0.00031562,-0.00011238,0.00013576,0.000124
 32,0.00012351,-0.00027441,0.00220974,0.00096237,-0.00046327,-0.0000592
 7,0.00004612,0.00005378,0.00000078,-0.00000619,0.00000257,0.00270899,0
 .02965236,-0.00455856,-0.05087280,-0.03098829,0.00567400,0.00000421,0.
 00000265,0.00000046,0.00000623,-0.00000895,-0.00000080,0.00001593,0.00
 000262,0.00001009,0.00000247,-0.00000087,0.00000247,-0.00000034,-0.000
 00243,-0.00000002,-0.00001577,-0.00000119,-0.00002284,0.00003061,0.000
 02438,0.00003866,0.00000157,-0.00002946,-0.00002341,0.00002323,-0.0000
 3259,0.00001303,0.00002084,0.00001103,-0.00001315,-0.00024720,-0.00066
 711,0.00022815,-0.00009596,-0.00005045,0.00008411,-0.00489485,0.002524
 29,-0.00204013,0.00129668,-0.00073790,0.00037320,-0.00194645,-0.007964
 15,0.00196082,-0.00292119,-0.02370944,0.00276298,0.05481164,-0.0000043
 0,-0.00000312,-0.00000479,0.00005637,0.00002086,-0.00003036,0.00000624
 ,-0.00000246,0.00000372,0.00000096,-0.00000719,0.00001565,-0.00001527,
 -0.00000665,-0.00002734,0.00001108,-0.00002148,-0.00002530,-0.00002684
 ,-0.00003645,-0.00002438,-0.00017768,0.00010100,0.00006117,0.00005246,
 -0.00002515,-0.00003081,0.00006706,-0.00006790,0.00000368,0.00005597,-
 0.00001602,-0.00004357,-0.00017754,0.00015655,0.00004887,0.00004951,0.
 00023107,-0.00009119,0.00026470,0.00013764,0.00002865,-0.00119204,0.00
 048909,-0.00002822,0.00009869,-0.00005033,-0.00002642,-0.00001719,0.00
 001176,-0.00001104,-0.00084706,-0.01336507,0.00251226,-0.03001440,-0.2
 9270669,0.04232356,-0.00000142,0.00000367,0.00000545,-0.00000590,-0.00
 000914,-0.00000106,0.00000989,0.00000711,0.00000403,0.00000066,-0.0000
 0360,0.00000817,-0.00000149,0.00000041,0.00000412,-0.00003155,0.000030
 30,0.00004655,0.00003764,0.00003302,0.00003361,-0.00004024,0.00002262,
 0.00002400,0.00008497,-0.00004531,-0.00001447,-0.00004647,-0.00001796,
 -0.00000017,0.00079309,0.00037939,-0.00042707,0.00004949,-0.00009869,-
 0.00003966,0.00265047,0.00075885,0.00116132,0.00014159,0.00082946,0.00
 029572,-0.00201390,-0.01372533,0.00211596,-0.00099039,-0.00292938,0.00
 061467,0.03117286,0.31992513,-0.00000106,0.00000481,-0.00000025,0.0000
 1412,-0.00000499,-0.00000170,0.00000727,-0.00000746,0.00001297,0.00000
 646,-0.00001636,0.00001867,0.00000797,0.00000599,0.00001693,0.00002377
 ,0.00001971,-0.00001248,-0.00005392,0.00002405,-0.00002523,-0.00005719
 ,-0.00011437,-0.00006997,0.00001284,0.00010439,0.00003014,0.00000784,0
 .00003782,0.00000542,0.00001991,0.00003388,0.00001701,0.00009669,-0.00
 018607,0.00012406,-0.00013188,0.00003100,-0.00007646,0.00007376,-0.000
 01449,-0.00010192,0.00051529,-0.00071481,0.00017613,-0.00004680,0.0000
 3399,-0.00003225,0.00000609,-0.00000017,0.00000652,0.00127745,0.012631
 95,-0.00281160,0.00550803,0.04198018,-0.05501076,-0.00000129,-0.000005
 71,0.00000276,0.00000031,0.00000201,0.00000105,0.00000159,-0.00000273,
 -0.00000523,0.00000330,-0.00000280,0.00000057,-0.00000201,-0.00000324,
 0.00000170,-0.00003059,0.00001212,-0.00000680,0.00003523,0.00001774,0.
 00000706,0.00000547,-0.00003384,-0.00002128,0.00000021,0.00000807,0.00
 000715,-0.00002398,0.00002198,-0.00002089,-0.00011627,-0.00012073,0.00
 037580,-0.00006636,-0.00012334,0.00002194,-0.00245301,0.00085460,-0.00
 003665,0.00061011,0.00014249,0.00003167,-0.00341169,-0.02797994,0.0056
 2359,0.00209956,0.02184955,-0.00377037,-0.00393721,-0.04848530,0.05552
 268\\0.00000078,-0.00000801,-0.00000373,0.00000151,-0.00000898,0.00000
 011,-0.00000200,0.00000168,-0.00000097,0.00000393,0.00000216,-0.000002
 10,0.00000250,-0.00000201,0.00000340,-0.00000348,0.00000199,0.00000030
 ,0.00000318,0.00000398,-0.00000042,-0.00000354,-0.00000140,0.00000073,
 0.00000092,-0.00000187,-0.00000144,0.00000276,0.00000196,0.00000025,0.
 00000314,0.00000208,-0.00000030,-0.00000276,0.00000163,0.00000372,0.00
 000321,0.00000669,0.00000004,-0.00000213,0.00000129,-0.00000076,-0.000
 00138,0.00000005,0.00000062,-0.00000017,-0.00000307,-0.00000251,0.0000
 0103,-0.00000091,-0.00000128,0.00000040,-0.00000211,-0.00000079,0.,0.0
 0000098,0.00000215,0.00000088,0.00000139,0.00000193,0.00000106,0.00000
 183,0.00000092,-0.00000032,0.00000189,0.00000110,0.00000088,-0.0000020
 5,-0.00000169,0.00000157,-0.00000021,-0.00000113,-0.00000098,-0.000000
 81,-0.00000106,-0.00000035,-0.00000133,-0.00000123,-0.00000151,0.00000
 100,-0.00000173,-0.00000091,0.00000235,0.00000007,-0.00000107,-0.00000
 040,0.00000013,-0.00000143,0.00000098,0.00000012,-0.00000078,-0.000000
 06,0.00000079,-0.00000116,-0.00000014,0.00000176,-0.00000023,0.0000010
 5,0.00000082,-0.00000062,0.00000049,-0.00000037,-0.00000122,-0.0000020
 2,0.00000047,-0.00000174,-0.00000008,0.00000208\\\@


 "I COULD HAVE DONE IT IN A MUCH MORE COMPLICATED WAY"
 SAID THE RED QUEEN, IMMENSELY PROUD.

                                      -- LEWIS CARROLL
 Job cpu time:       0 days 12 hours  9 minutes 26.6 seconds.
 File lengths (MBytes):  RWF=   1442 Int=      0 D2E=      0 Chk=     39 Scr=      1
 Normal termination of Gaussian 09 at Thu Sep 21 22:17:26 2017.
