 Entering Gaussian System, Link 0=g09.bin
 Initial command:
 /net/software/local/gaussian09/E.01/g09/l1.exe "/net/scratch/people/plgjawiczuk/slurm_jobdir/7318448/Gau-31284.inp" -scrdir="/net/scratch/people/plgjawiczuk/slurm_jobdir/7318448/"
 Entering Link 1 = /net/software/local/gaussian09/E.01/g09/l1.exe PID=     31285.
  
 Copyright (c) 1988,1990,1992,1993,1995,1998,2003,2009,2015,
            Gaussian, Inc.  All Rights Reserved.
  
 This is part of the Gaussian(R) 09 program.  It is based on
 the Gaussian(R) 03 system (copyright 2003, Gaussian, Inc.),
 the Gaussian(R) 98 system (copyright 1998, Gaussian, Inc.),
 the Gaussian(R) 94 system (copyright 1995, Gaussian, Inc.),
 the Gaussian 92(TM) system (copyright 1992, Gaussian, Inc.),
 the Gaussian 90(TM) system (copyright 1990, Gaussian, Inc.),
 the Gaussian 88(TM) system (copyright 1988, Gaussian, Inc.),
 the Gaussian 86(TM) system (copyright 1986, Carnegie Mellon
 University), and the Gaussian 82(TM) system (copyright 1983,
 Carnegie Mellon University). Gaussian is a federally registered
 trademark of Gaussian, Inc.
  
 This software contains proprietary and confidential information,
 including trade secrets, belonging to Gaussian, Inc.
  
 This software is provided under written license and may be
 used, copied, transmitted, or stored only in accord with that
 written license.
  
 The following legend is applicable only to US Government
 contracts under FAR:
  
                    RESTRICTED RIGHTS LEGEND
  
 Use, reproduction and disclosure by the US Government is
 subject to restrictions as set forth in subparagraphs (a)
 and (c) of the Commercial Computer Software - Restricted
 Rights clause in FAR 52.227-19.
  
 Gaussian, Inc.
 340 Quinnipiac St., Bldg. 40, Wallingford CT 06492
  
  
 ---------------------------------------------------------------
 Warning -- This program may not be used in any manner that
 competes with the business of Gaussian, Inc. or will provide
 assistance to any competitor of Gaussian, Inc.  The licensee
 of this program is prohibited from giving any competitor of
 Gaussian, Inc. access to this program.  By using this program,
 the user acknowledges that Gaussian, Inc. is engaged in the
 business of creating and licensing software in the field of
 computational chemistry and represents and warrants to the
 licensee that it is not a competitor of Gaussian, Inc. and that
 it will not use this program in any manner prohibited above.
 ---------------------------------------------------------------
  

 Cite this work as:
 Gaussian 09, Revision E.01,
 M. J. Frisch, G. W. Trucks, H. B. Schlegel, G. E. Scuseria, 
 M. A. Robb, J. R. Cheeseman, G. Scalmani, V. Barone, B. Mennucci, 
 G. A. Petersson, H. Nakatsuji, M. Caricato, X. Li, H. P. Hratchian, 
 A. F. Izmaylov, J. Bloino, G. Zheng, J. L. Sonnenberg, M. Hada, 
 M. Ehara, K. Toyota, R. Fukuda, J. Hasegawa, M. Ishida, T. Nakajima, 
 Y. Honda, O. Kitao, H. Nakai, T. Vreven, J. A. Montgomery, Jr., 
 J. E. Peralta, F. Ogliaro, M. Bearpark, J. J. Heyd, E. Brothers, 
 K. N. Kudin, V. N. Staroverov, T. Keith, R. Kobayashi, J. Normand, 
 K. Raghavachari, A. Rendell, J. C. Burant, S. S. Iyengar, J. Tomasi, 
 M. Cossi, N. Rega, J. M. Millam, M. Klene, J. E. Knox, J. B. Cross, 
 V. Bakken, C. Adamo, J. Jaramillo, R. Gomperts, R. E. Stratmann, 
 O. Yazyev, A. J. Austin, R. Cammi, C. Pomelli, J. W. Ochterski, 
 R. L. Martin, K. Morokuma, V. G. Zakrzewski, G. A. Voth, 
 P. Salvador, J. J. Dannenberg, S. Dapprich, A. D. Daniels, 
 O. Farkas, J. B. Foresman, J. V. Ortiz, J. Cioslowski, 
 and D. J. Fox, Gaussian, Inc., Wallingford CT, 2013.
 
 ******************************************
 Gaussian 09:  ES64L-G09RevE.01 30-Nov-2015
                27-Sep-2017 
 ******************************************
 %mem=14336MB
 %rwf=.//21352.rwf,500GB
 %NProcShared=8
 Will use up to    8 processors via shared memory.
 %chk=Tolbutamid_c2.chk
 ------------------------------------------
 #P td=(singlets,nstates=80) B3LYP/Def2TZVP
 ------------------------------------------
 1/38=1/1;
 2/12=2,17=6,18=5,40=1/2;
 3/5=44,7=101,11=9,16=1,25=1,30=1,74=-5/1,2,8,3;
 4//1;
 5/5=2,38=5/2;
 8/6=1,10=1,108=80/1;
 9/41=80,42=1,48=1,70=2/14;
 6/7=2,8=2,9=2,10=2/1;
 99/5=1,9=1/99;
 Leave Link    1 at Wed Sep 27 14:31:09 2017, MaxMem=  1879048192 cpu:         0.4
 (Enter /net/software/local/gaussian09/E.01/g09/l101.exe)
 -------
 conflex
 -------
 Symbolic Z-matrix:
 Charge =  0 Multiplicity = 1
 C                    -3.94587   2.98119   0.37467 
 C                    -3.13292   1.73741   0.14048 
 C                    -2.06986   1.73384  -0.76368 
 C                    -1.29795   0.59744  -0.96384 
 C                    -1.5908   -0.5596   -0.25056 
 C                    -2.65628  -0.58654   0.64586 
 C                    -3.41487   0.55781   0.8351 
 S                    -0.61091  -2.02264  -0.48125 
 N                     0.51026  -2.03604   0.74576 
 O                    -1.44503  -3.16114  -0.22883 
 O                     0.1192   -1.87467  -1.71464 
 C                     1.71561  -1.2996    0.9328 
 N                     2.26824  -0.78308  -0.18471 
 C                     3.55067  -0.09083  -0.17258 
 C                     3.45552   1.37208  -0.60964 
 O                     2.16116  -1.21033   2.05979 
 H                     0.16037  -2.41251   1.61659 
 C                     2.68379   2.26815   0.35823 
 C                     2.59469   3.71782  -0.11495 
 H                    -3.92901   3.6385   -0.49496 
 H                    -3.54876   3.54761   1.22197 
 H                    -4.98483   2.74057   0.6029 
 H                    -1.84559   2.63104  -1.32793 
 H                    -0.48969   0.60036  -1.68092 
 H                    -2.90014  -1.50044   1.17017 
 H                    -4.24807   0.53163   1.52703 
 H                     1.86108  -1.05106  -1.06942 
 H                     4.23962  -0.62795  -0.83039 
 H                     3.94134  -0.16259   0.84159 
 H                     4.47667   1.75153  -0.72381 
 H                     3.00061   1.4229   -1.60572 
 H                     1.67641   1.86747   0.50052 
 H                     3.16522   2.23084   1.34024 
 H                     2.08548   3.78962  -1.0797 
 H                     2.04352   4.33455   0.5975 
 H                     3.58784   4.15808  -0.23488 
 
 NAtoms=     36 NQM=       36 NQMF=       0 NMMI=      0 NMMIF=      0
                NMic=       0 NMicF=      0.
                    Isotopes and Nuclear Properties:
 (Nuclear quadrupole moments (NQMom) in fm**2, nuclear magnetic moments (NMagM)
  in nuclear magnetons)

  Atom         1           2           3           4           5           6           7           8           9          10
 IAtWgt=          12          12          12          12          12          12          12          32          14          16
 AtmWgt=  12.0000000  12.0000000  12.0000000  12.0000000  12.0000000  12.0000000  12.0000000  31.9720718  14.0030740  15.9949146
 NucSpn=           0           0           0           0           0           0           0           0           2           0
 AtZEff=   0.0000000   0.0000000   0.0000000   0.0000000   0.0000000   0.0000000   0.0000000   0.0000000   0.0000000   0.0000000
 NQMom=    0.0000000   0.0000000   0.0000000   0.0000000   0.0000000   0.0000000   0.0000000   0.0000000   2.0440000   0.0000000
 NMagM=    0.0000000   0.0000000   0.0000000   0.0000000   0.0000000   0.0000000   0.0000000   0.0000000   0.4037610   0.0000000
 AtZNuc=   6.0000000   6.0000000   6.0000000   6.0000000   6.0000000   6.0000000   6.0000000  16.0000000   7.0000000   8.0000000

  Atom        11          12          13          14          15          16          17          18          19          20
 IAtWgt=          16          12          14          12          12          16           1          12          12           1
 AtmWgt=  15.9949146  12.0000000  14.0030740  12.0000000  12.0000000  15.9949146   1.0078250  12.0000000  12.0000000   1.0078250
 NucSpn=           0           0           2           0           0           0           1           0           0           1
 AtZEff=   0.0000000   0.0000000   0.0000000   0.0000000   0.0000000   0.0000000   0.0000000   0.0000000   0.0000000   0.0000000
 NQMom=    0.0000000   0.0000000   2.0440000   0.0000000   0.0000000   0.0000000   0.0000000   0.0000000   0.0000000   0.0000000
 NMagM=    0.0000000   0.0000000   0.4037610   0.0000000   0.0000000   0.0000000   2.7928460   0.0000000   0.0000000   2.7928460
 AtZNuc=   8.0000000   6.0000000   7.0000000   6.0000000   6.0000000   8.0000000   1.0000000   6.0000000   6.0000000   1.0000000

  Atom        21          22          23          24          25          26          27          28          29          30
 IAtWgt=           1           1           1           1           1           1           1           1           1           1
 AtmWgt=   1.0078250   1.0078250   1.0078250   1.0078250   1.0078250   1.0078250   1.0078250   1.0078250   1.0078250   1.0078250
 NucSpn=           1           1           1           1           1           1           1           1           1           1
 AtZEff=   0.0000000   0.0000000   0.0000000   0.0000000   0.0000000   0.0000000   0.0000000   0.0000000   0.0000000   0.0000000
 NQMom=    0.0000000   0.0000000   0.0000000   0.0000000   0.0000000   0.0000000   0.0000000   0.0000000   0.0000000   0.0000000
 NMagM=    2.7928460   2.7928460   2.7928460   2.7928460   2.7928460   2.7928460   2.7928460   2.7928460   2.7928460   2.7928460
 AtZNuc=   1.0000000   1.0000000   1.0000000   1.0000000   1.0000000   1.0000000   1.0000000   1.0000000   1.0000000   1.0000000

  Atom        31          32          33          34          35          36
 IAtWgt=           1           1           1           1           1           1
 AtmWgt=   1.0078250   1.0078250   1.0078250   1.0078250   1.0078250   1.0078250
 NucSpn=           1           1           1           1           1           1
 AtZEff=   0.0000000   0.0000000   0.0000000   0.0000000   0.0000000   0.0000000
 NQMom=    0.0000000   0.0000000   0.0000000   0.0000000   0.0000000   0.0000000
 NMagM=    2.7928460   2.7928460   2.7928460   2.7928460   2.7928460   2.7928460
 AtZNuc=   1.0000000   1.0000000   1.0000000   1.0000000   1.0000000   1.0000000
 Leave Link  101 at Wed Sep 27 14:31:09 2017, MaxMem=  1879048192 cpu:         0.5
 (Enter /net/software/local/gaussian09/E.01/g09/l202.exe)
                          Input orientation:                          
 ---------------------------------------------------------------------
 Center     Atomic      Atomic             Coordinates (Angstroms)
 Number     Number       Type             X           Y           Z
 ---------------------------------------------------------------------
      1          6           0       -3.945874    2.981194    0.374665
      2          6           0       -3.132915    1.737410    0.140477
      3          6           0       -2.069855    1.733839   -0.763683
      4          6           0       -1.297948    0.597439   -0.963836
      5          6           0       -1.590804   -0.559604   -0.250556
      6          6           0       -2.656282   -0.586535    0.645857
      7          6           0       -3.414868    0.557808    0.835099
      8         16           0       -0.610913   -2.022636   -0.481251
      9          7           0        0.510261   -2.036036    0.745763
     10          8           0       -1.445025   -3.161141   -0.228827
     11          8           0        0.119204   -1.874674   -1.714644
     12          6           0        1.715613   -1.299601    0.932795
     13          7           0        2.268237   -0.783080   -0.184706
     14          6           0        3.550670   -0.090832   -0.172576
     15          6           0        3.455516    1.372079   -0.609642
     16          8           0        2.161156   -1.210328    2.059787
     17          1           0        0.160369   -2.412511    1.616594
     18          6           0        2.683789    2.268149    0.358230
     19          6           0        2.594688    3.717816   -0.114948
     20          1           0       -3.929005    3.638495   -0.494958
     21          1           0       -3.548755    3.547612    1.221974
     22          1           0       -4.984827    2.740572    0.602896
     23          1           0       -1.845590    2.631041   -1.327932
     24          1           0       -0.489691    0.600356   -1.680919
     25          1           0       -2.900136   -1.500442    1.170171
     26          1           0       -4.248072    0.531628    1.527032
     27          1           0        1.861080   -1.051060   -1.069419
     28          1           0        4.239617   -0.627946   -0.830386
     29          1           0        3.941338   -0.162586    0.841590
     30          1           0        4.476669    1.751533   -0.723812
     31          1           0        3.000605    1.422904   -1.605721
     32          1           0        1.676407    1.867468    0.500515
     33          1           0        3.165225    2.230844    1.340244
     34          1           0        2.085480    3.789615   -1.079696
     35          1           0        2.043518    4.334553    0.597503
     36          1           0        3.587840    4.158076   -0.234877
 ---------------------------------------------------------------------
                    Distance matrix (angstroms):
                    1          2          3          4          5
     1  C    0.000000
     2  C    1.504242   0.000000
     3  C    2.524119   1.395570   0.000000
     4  C    3.805967   2.426138   1.388275   0.000000
     5  C    4.298198   2.794152   2.398472   1.390425   0.000000
     6  C    3.803325   2.425553   2.777559   2.416191   1.392668
     7  C    2.523245   1.397662   2.397543   2.778325   2.398847
     8  S    6.073950   4.570009   4.039726   2.751308   1.775914
     9  N    6.720673   5.279962   4.811173   3.623195   2.754447
    10  O    6.659334   5.194339   4.963599   3.832596   2.605709
    11  O    6.668547   5.202394   4.326393   2.946757   2.607123
    12  C    7.119631   5.775762   5.139024   4.034541   3.588915
    13  N    7.286826   5.969176   5.048677   3.902634   3.866067
    14  C    8.120036   6.936193   5.938782   4.960736   5.163389
    15  C    7.637977   6.641052   5.539343   4.829176   5.415320
    16  O    7.596335   6.356107   5.877207   4.937177   4.454024
    17  H    6.891710   5.499680   5.275589   4.224347   3.160082
    18  C    6.667918   5.844925   4.913380   4.515901   5.161294
    19  C    6.600097   6.065697   5.110282   5.060630   5.986072
    20  H    1.090217   2.156771   2.675139   4.048497   4.811544
    21  H    1.093831   2.149277   3.069161   4.306671   4.782378
    22  H    1.090602   2.156326   3.373146   4.543209   4.810295
    23  H    2.726286   2.147558   1.083348   2.137291   3.377258
    24  H    4.673223   3.405438   2.150122   1.080507   2.145669
    25  H    4.670274   3.405604   3.858721   3.394421   2.148951
    26  H    2.723903   2.149423   3.381910   3.861604   3.378118
    27  H    7.215620   5.846315   4.827151   3.564850   3.581560
    28  H    9.026644   7.803314   6.737352   5.673095   5.859580
    29  H    8.503498   7.358437   6.504442   5.593507   5.652875
    30  H    8.582421   7.658522   6.546669   5.893704   6.509958
    31  H    7.389436   6.384997   5.149298   4.423909   5.181491
    32  H    5.732911   4.824533   3.956075   3.550223   4.138774
    33  H    7.215476   6.430357   5.663884   5.281734   5.739082
    34  H    6.256672   5.738642   4.646815   4.653063   5.754845
    35  H    6.144433   5.809431   5.053353   5.250638   6.154695
    36  H    7.649408   7.153255   6.177870   6.089371   7.005363
                    6          7          8          9         10
     6  C    0.000000
     7  C    1.385924   0.000000
     8  S    2.741586   4.031579   0.000000
     9  N    3.483967   4.705597   1.662159   0.000000
    10  O    2.976712   4.340830   1.433755   2.457403   0.000000
    11  O    3.864530   4.990774   1.440910   2.496511   2.511864
    12  C    4.438948   5.457229   2.816918   1.424848   3.847639
    13  N    4.997935   5.927535   3.148641   2.350777   4.409698
    14  C    6.280271   7.067875   4.598469   3.724413   5.864037
    15  C    6.539612   7.067708   5.298719   4.703924   6.686584
    16  O    5.059251   5.976471   3.847218   2.265813   4.695526
    17  H    3.494287   4.713369   2.268883   1.011190   2.557991
    18  C    6.062038   6.351873   5.474543   4.837397   6.846089
    19  C    6.832199   6.855874   6.585047   6.180006   7.978239
    20  H    4.557649   3.394705   6.561884   7.310730   7.244034
    21  H    4.268441   3.017702   6.523768   6.919502   7.178988
    22  H    4.061232   2.698731   6.557030   7.282334   6.931968
    23  H    3.860811   3.382252   4.888559   5.624220   5.909133
    24  H    3.393628   3.858603   2.886864   3.720115   4.143681
    25  H    1.081479   2.147933   2.870614   3.478188   2.613898
    26  H    2.135545   1.083368   4.877129   5.463059   4.957485
    27  H    4.854329   5.835347   2.720414   2.467747   4.011155
    28  H    7.052264   7.922815   5.059120   4.286614   6.252528
    29  H    6.614124   7.391399   5.092414   3.910408   6.256999
    30  H    7.630304   8.132130   6.339296   5.677827   7.710113
    31  H    6.411538   6.918402   5.116565   4.867808   6.532452
    32  H    4.981511   5.267660   4.618290   4.081346   5.963404
    33  H    6.504594   6.808219   5.972366   5.060485   7.265665
    34  H    6.679261   6.660694   6.435133   6.304905   7.842286
    35  H    6.804966   6.641855   6.973060   6.554179   8.308922
    36  H    7.891520   7.946364   7.476057   6.985712   8.882607
                   11         12         13         14         15
    11  O    0.000000
    12  C    3.144545   0.000000
    13  N    2.854931   1.349443   0.000000
    14  C    4.163535   2.459756   1.457391   0.000000
    15  C    4.784706   3.541786   2.496981   1.529768   0.000000
    16  O    4.342494   1.215150   2.287303   2.857878   3.933198
    17  H    3.374627   2.030993   3.216028   4.481681   5.489740
    18  C    5.294987   3.741167   3.126893   2.568663   1.528162
    19  C    6.321629   5.200482   4.513258   3.927216   2.547200
    20  H    6.947709   7.634460   7.619212   8.364051   7.725344
    21  H    7.174875   7.161890   7.387221   8.098449   7.559601
    22  H    7.261034   7.831202   8.102060   9.026235   8.636111
    23  H    4.930662   5.765674   5.466878   6.153297   5.495694
    24  H    2.549052   3.912123   3.429098   4.367763   4.160270
    25  H    4.192687   4.626210   5.390953   6.738165   7.198154
    26  H    5.947424   6.266742   6.864458   8.006029   8.038470
    27  H    2.031942   2.022818   1.010103   2.140346   2.936873
    28  H    4.394775   3.151273   2.080218   1.093551   2.159547
    29  H    4.906555   2.500994   2.058534   1.089175   2.167324
    30  H    5.754878   4.435899   3.404713   2.134395   1.095342
    31  H    4.380452   3.937931   2.724337   2.155893   1.096221
    32  H    4.619030   3.196675   2.800928   2.793001   2.154783
    33  H    5.955322   3.838155   3.494824   2.797744   2.150303
    34  H    6.029392   5.485166   4.663041   4.245882   2.818232
    35  H    6.899530   5.653639   5.181941   4.737991   3.496740
    36  H    7.114437   5.886844   5.114576   4.249527   2.814203
                   16         17         18         19         20
    16  O    0.000000
    17  H    2.375881   0.000000
    18  C    3.907460   5.464404   0.000000
    19  C    5.404075   6.819462   1.527538   0.000000
    20  H    8.193160   7.602388   6.806969   6.535233   0.000000
    21  H    7.479506   7.031102   6.420879   6.289533   1.760882
    22  H    8.294409   7.352203   7.687049   7.675894   1.768137
    23  H    6.502828   6.175073   4.846659   4.729533   2.459558
    24  H    4.929346   4.513706   4.124395   4.656631   4.739797
    25  H    5.147063   3.224570   6.785407   7.686016   5.499082
    26  H    6.663066   5.301917   7.241015   7.724717   3.720601
    27  H    3.147593   3.458415   3.705696   4.918473   7.473086
    28  H    3.607252   5.080615   3.495823   4.701414   9.221790
    29  H    2.398086   4.467496   2.779126   4.217339   8.841769
    30  H    4.677889   6.437951   2.156879   2.789057   8.617909
    31  H    4.590701   5.758530   2.161461   2.766549   7.359493
    32  H    3.484127   4.675706   1.093439   2.155417   5.962227
    33  H    3.656168   5.537714   1.094314   2.157355   7.461739
    34  H    5.904364   7.031529   2.177261   1.093246   6.044732
    35  H    5.735662   7.078677   2.176516   1.091668   6.111383
    36  H    6.010048   7.638594   2.177363   1.092961   7.539268
                   21         22         23         24         25
    21  H    0.000000
    22  H    1.759794   0.000000
    23  H    3.200452   3.687127   0.000000
    24  H    5.144995   5.477461   2.467133   0.000000
    25  H    5.089817   4.759615   4.941835   4.283960   0.000000
    26  H    3.110991   2.505248   4.281387   4.941771   2.464465
    27  H    7.460870   8.002472   5.231071   2.937215   5.280803
    28  H    9.072277   9.924292   6.920859   4.959686   7.465892
    29  H    8.367303   9.389447   6.782309   5.155497   6.978796
    30  H    8.451001   9.605116   6.411665   5.187099   8.281290
    31  H    7.443410   8.389360   5.002236   3.586698   7.146347
    32  H    5.535856   6.718990   4.041129   3.325088   5.721538
    33  H    6.842908   8.199198   5.691009   5.014412   7.123203
    34  H    6.091047   7.343082   4.105755   4.142988   7.609400
    35  H    5.681792   7.206833   4.662018   5.054956   7.669083
    36  H    7.309314   8.729364   5.748806   5.601310   8.722776
                   26         27         28         29         30
    26  H    0.000000
    27  H    6.824089   0.000000
    28  H    8.884981   2.427674   0.000000
    29  H    8.247315   2.961218   1.760975   0.000000
    30  H    9.092611   3.849062   2.393632   2.530003   0.000000
    31  H    7.946813   2.776083   2.518389   3.063999   1.750579
    32  H    6.159355   3.319127   3.816862   3.060615   3.058412
    33  H    7.607838   4.275297   3.746816   2.565056   2.491977
    34  H    7.584418   4.845884   4.921108   4.770266   3.161996
    35  H    7.410153   5.640633   5.611427   4.887285   3.786567
    36  H    8.812319   5.550969   4.866770   4.466751   2.611613
                   31         32         33         34         35
    31  H    0.000000
    32  H    2.527324   0.000000
    33  H    3.059179   1.747503   0.000000
    34  H    2.591424   2.521717   3.074366   0.000000
    35  H    3.774641   2.496134   2.497095   1.764005   0.000000
    36  H    3.115321   3.072664   2.524645   1.762546   1.763216
                   36
    36  H    0.000000
 Stoichiometry    C12H18N2O3S
 Framework group  C1[X(C12H18N2O3S)]
 Deg. of freedom   102
 Full point group                 C1      NOp   1
 Largest Abelian subgroup         C1      NOp   1
 Largest concise Abelian subgroup C1      NOp   1
                         Standard orientation:                         
 ---------------------------------------------------------------------
 Center     Atomic      Atomic             Coordinates (Angstroms)
 Number     Number       Type             X           Y           Z
 ---------------------------------------------------------------------
      1          6           0       -3.945874    2.981194    0.374665
      2          6           0       -3.132915    1.737410    0.140477
      3          6           0       -2.069855    1.733839   -0.763683
      4          6           0       -1.297948    0.597439   -0.963836
      5          6           0       -1.590804   -0.559604   -0.250556
      6          6           0       -2.656282   -0.586535    0.645857
      7          6           0       -3.414868    0.557808    0.835099
      8         16           0       -0.610913   -2.022636   -0.481251
      9          7           0        0.510261   -2.036036    0.745763
     10          8           0       -1.445025   -3.161141   -0.228827
     11          8           0        0.119204   -1.874674   -1.714644
     12          6           0        1.715613   -1.299601    0.932795
     13          7           0        2.268237   -0.783080   -0.184706
     14          6           0        3.550670   -0.090832   -0.172576
     15          6           0        3.455516    1.372079   -0.609642
     16          8           0        2.161156   -1.210328    2.059787
     17          1           0        0.160369   -2.412511    1.616594
     18          6           0        2.683789    2.268149    0.358230
     19          6           0        2.594688    3.717816   -0.114948
     20          1           0       -3.929005    3.638495   -0.494958
     21          1           0       -3.548755    3.547612    1.221974
     22          1           0       -4.984827    2.740573    0.602896
     23          1           0       -1.845590    2.631041   -1.327932
     24          1           0       -0.489691    0.600356   -1.680919
     25          1           0       -2.900136   -1.500442    1.170171
     26          1           0       -4.248072    0.531628    1.527032
     27          1           0        1.861080   -1.051060   -1.069419
     28          1           0        4.239617   -0.627946   -0.830386
     29          1           0        3.941338   -0.162586    0.841590
     30          1           0        4.476669    1.751533   -0.723812
     31          1           0        3.000605    1.422904   -1.605721
     32          1           0        1.676407    1.867468    0.500515
     33          1           0        3.165225    2.230844    1.340244
     34          1           0        2.085480    3.789615   -1.079696
     35          1           0        2.043518    4.334553    0.597503
     36          1           0        3.587840    4.158076   -0.234877
 ---------------------------------------------------------------------
 Rotational constants (GHZ):      0.4143671      0.2948976      0.2002289
 Leave Link  202 at Wed Sep 27 14:31:09 2017, MaxMem=  1879048192 cpu:         0.3
 (Enter /net/software/local/gaussian09/E.01/g09/l301.exe)
 Standard basis: def2TZVP (5D, 7F)
 Ernie: Thresh=  0.10000D-02 Tol=  0.10000D-05 Strict=F.
 There are   762 symmetry adapted cartesian basis functions of A   symmetry.
 There are   672 symmetry adapted basis functions of A   symmetry.
   672 basis functions,  1080 primitive gaussians,   762 cartesian basis functions
    72 alpha electrons       72 beta electrons
       nuclear repulsion energy      1537.0905158571 Hartrees.
 IExCor=  402 DFT=T Ex+Corr=B3LYP ExCW=0 ScaHFX=  0.200000
 ScaDFX=  0.800000  0.720000  1.000000  0.810000 ScalE2=  1.000000  1.000000
 IRadAn=      0 IRanWt=     -1 IRanGd=            0 ICorTp=0 IEmpDi=  4
 NAtoms=   36 NActive=   36 NUniq=   36 SFac= 1.00D+00 NAtFMM=   60 NAOKFM=F Big=F
 Integral buffers will be    131072 words long.
 Regular integral format.
 Two-electron integral symmetry is turned on.
 Leave Link  301 at Wed Sep 27 14:31:09 2017, MaxMem=  1879048192 cpu:         0.3
 (Enter /net/software/local/gaussian09/E.01/g09/l302.exe)
 NPDir=0 NMtPBC=     1 NCelOv=     1 NCel=       1 NClECP=     1 NCelD=      1
         NCelK=      1 NCelE2=     1 NClLst=     1 CellRange=     0.0.
 One-electron integrals computed using PRISM.
   1 Symmetry operations used in ECPInt.
 ECPInt:  NShTT=   37128 NPrTT=  113514 LenC2=   32702 LenP2D=   70730.
 LDataN:  DoStor=T MaxTD1= 6 Len=  172
 NBasis=   672 RedAO= T EigKep=  6.85D-06  NBF=   672
 NBsUse=   672 1.00D-06 EigRej= -1.00D+00 NBFU=   672
 Precomputing XC quadrature grid using
 IXCGrd= 4 IRadAn=           0 IRanWt=          -1 IRanGd=           0 AccXCQ= 0.00D+00.
 Generated NRdTot=       0 NPtTot=           0 NUsed=           0 NTot=          32
 NSgBfM=   750   750   751   751   751 MxSgAt=    36 MxSgA2=    36.
 Leave Link  302 at Wed Sep 27 14:31:10 2017, MaxMem=  1879048192 cpu:         7.3
 (Enter /net/software/local/gaussian09/E.01/g09/l308.exe)
 Leave Link  308 at Wed Sep 27 14:31:10 2017, MaxMem=  1879048192 cpu:         1.9
 (Enter /net/software/local/gaussian09/E.01/g09/l303.exe)
 DipDrv:  MaxL=1.
 Leave Link  303 at Wed Sep 27 14:31:10 2017, MaxMem=  1879048192 cpu:         0.9
 (Enter /net/software/local/gaussian09/E.01/g09/l401.exe)
 ExpMin= 9.52D-02 ExpMax= 6.07D+04 ExpMxC= 2.07D+03 IAcc=2 IRadAn=         4 AccDes= 0.00D+00
 Harris functional with IExCor=  402 and IRadAn=       4 diagonalized for initial guess.
 HarFok:  IExCor=  402 AccDes= 0.00D+00 IRadAn=         4 IDoV= 1 UseB2=F ITyADJ=14
 ICtDFT=  3500011 ScaDFX=  1.000000  1.000000  1.000000  1.000000
 FoFCou: FMM=F IPFlag=           0 FMFlag=      100000 FMFlg1=           0
         NFxFlg=           0 DoJE=T BraDBF=F KetDBF=T FulRan=T
         wScrn=  0.000000 ICntrl=     500 IOpCl=  0 I1Cent=   200000004 NGrid=           0
         NMat0=    1 NMatS0=      1 NMatT0=    0 NMatD0=    1 NMtDS0=    0 NMtDT0=    0
 Petite list used in FoFCou.
 Harris En= -1201.97684718409    
 JPrj=0 DoOrth=F DoCkMO=F.
 Leave Link  401 at Wed Sep 27 14:31:14 2017, MaxMem=  1879048192 cpu:        24.7
 (Enter /net/software/local/gaussian09/E.01/g09/l502.exe)
 Closed shell SCF:
 Using DIIS extrapolation, IDIIS=  1040.
 Integral symmetry usage will be decided dynamically.
 IVT=     1772166 IEndB=     1772166 NGot=  1879048192 MDV=  1877874073
 LenX=  1877874073 LenY=  1877292667
 Requested convergence on RMS density matrix=1.00D-08 within 128 cycles.
 Requested convergence on MAX density matrix=1.00D-06.
 Requested convergence on             energy=1.00D-06.
 No special actions if energy rises.
 Fock matrices will be formed incrementally for  20 cycles.
 Integral accuracy reduced to 1.0D-05 until final iterations.

 Cycle   1  Pass 0  IDiag  1:
 FoFJK:  IHMeth= 1 ICntrl=       0 DoSepK=F KAlg= 0 I1Cent=   0 FoldK=F
 IRaf= 780000000 NMat=   1 IRICut=       1 DoRegI=T DoRafI=F ISym2E= 0.
 FoFCou: FMM=F IPFlag=           0 FMFlag=      100000 FMFlg1=           0
         NFxFlg=           0 DoJE=F BraDBF=F KetDBF=F FulRan=T
         wScrn=  0.000000 ICntrl=       0 IOpCl=  0 I1Cent=           0 NGrid=           0
         NMat0=    1 NMatS0=      1 NMatT0=    0 NMatD0=    1 NMtDS0=    0 NMtDT0=    0
 Symmetry not used in FoFCou.
 E= -1201.10431578810    
 DIIS: error= 3.00D-02 at cycle   1 NSaved=   1.
 NSaved= 1 IEnMin= 1 EnMin= -1201.10431578810     IErMin= 1 ErrMin= 3.00D-02
 ErrMax= 3.00D-02  0.00D+00 EMaxC= 1.00D-01 BMatC= 9.56D-01 BMatP= 9.56D-01
 IDIUse=3 WtCom= 7.00D-01 WtEn= 3.00D-01
 Coeff-Com:  0.100D+01
 Coeff-En:   0.100D+01
 Coeff:      0.100D+01
 Gap=     0.268 Goal=   None    Shift=    0.000
 GapD=    0.268 DampG=1.000 DampE=0.500 DampFc=0.5000 IDamp=-1.
 Damping current iteration by 5.00D-01
 RMSDP=3.54D-03 MaxDP=3.88D-01              OVMax= 2.73D-01

 Cycle   2  Pass 0  IDiag  1:
 RMSU=  1.77D-03    CP:  9.88D-01
 E= -1201.20907848304     Delta-E=       -0.104762694940 Rises=F Damp=T
 DIIS: error= 1.14D-02 at cycle   2 NSaved=   2.
 NSaved= 2 IEnMin= 2 EnMin= -1201.20907848304     IErMin= 2 ErrMin= 1.14D-02
 ErrMax= 1.14D-02  0.00D+00 EMaxC= 1.00D-01 BMatC= 1.98D-01 BMatP= 9.56D-01
 IDIUse=3 WtCom= 8.86D-01 WtEn= 1.14D-01
 Coeff-Com:  0.268D+00 0.732D+00
 Coeff-En:   0.436D+00 0.564D+00
 Coeff:      0.287D+00 0.713D+00
 Gap=     0.288 Goal=   None    Shift=    0.000
 RMSDP=1.24D-03 MaxDP=1.12D-01 DE=-1.05D-01 OVMax= 2.47D-01

 Cycle   3  Pass 0  IDiag  1:
 RMSU=  9.63D-04    CP:  9.77D-01  5.63D-01
 E= -1201.73418360999     Delta-E=       -0.525105126945 Rises=F Damp=F
 DIIS: error= 9.81D-03 at cycle   3 NSaved=   3.
 NSaved= 3 IEnMin= 3 EnMin= -1201.73418360999     IErMin= 3 ErrMin= 9.81D-03
 ErrMax= 9.81D-03  0.00D+00 EMaxC= 1.00D-01 BMatC= 1.37D-01 BMatP= 1.98D-01
 IDIUse=3 WtCom= 9.02D-01 WtEn= 9.81D-02
 Coeff-Com:  0.977D-01 0.454D+00 0.448D+00
 Coeff-En:   0.000D+00 0.000D+00 0.100D+01
 Coeff:      0.881D-01 0.410D+00 0.502D+00
 Gap=     0.231 Goal=   None    Shift=    0.000
 RMSDP=6.32D-04 MaxDP=3.17D-02 DE=-5.25D-01 OVMax= 9.46D-02

 Cycle   4  Pass 0  IDiag  1:
 RMSU=  4.79D-04    CP:  9.84D-01  6.50D-01  6.05D-01
 E= -1201.83623463224     Delta-E=       -0.102051022254 Rises=F Damp=F
 DIIS: error= 5.00D-03 at cycle   4 NSaved=   4.
 NSaved= 4 IEnMin= 4 EnMin= -1201.83623463224     IErMin= 4 ErrMin= 5.00D-03
 ErrMax= 5.00D-03  0.00D+00 EMaxC= 1.00D-01 BMatC= 2.00D-02 BMatP= 1.37D-01
 IDIUse=3 WtCom= 9.50D-01 WtEn= 5.00D-02
 Coeff-Com:  0.836D-02 0.108D+00 0.296D+00 0.587D+00
 Coeff-En:   0.000D+00 0.000D+00 0.142D+00 0.858D+00
 Coeff:      0.794D-02 0.103D+00 0.288D+00 0.601D+00
 Gap=     0.220 Goal=   None    Shift=    0.000
 RMSDP=1.99D-04 MaxDP=1.20D-02 DE=-1.02D-01 OVMax= 3.61D-02

 Cycle   5  Pass 0  IDiag  1:
 RMSU=  1.37D-04    CP:  9.85D-01  6.34D-01  7.01D-01  7.75D-01
 E= -1201.85188015071     Delta-E=       -0.015645518466 Rises=F Damp=F
 DIIS: error= 1.67D-03 at cycle   5 NSaved=   5.
 NSaved= 5 IEnMin= 5 EnMin= -1201.85188015071     IErMin= 5 ErrMin= 1.67D-03
 ErrMax= 1.67D-03  0.00D+00 EMaxC= 1.00D-01 BMatC= 1.73D-03 BMatP= 2.00D-02
 IDIUse=3 WtCom= 9.83D-01 WtEn= 1.67D-02
 Coeff-Com: -0.422D-02 0.230D-01 0.119D+00 0.340D+00 0.523D+00
 Coeff-En:   0.000D+00 0.000D+00 0.000D+00 0.205D-01 0.980D+00
 Coeff:     -0.415D-02 0.226D-01 0.117D+00 0.334D+00 0.530D+00
 Gap=     0.212 Goal=   None    Shift=    0.000
 RMSDP=6.47D-05 MaxDP=6.78D-03 DE=-1.56D-02 OVMax= 1.23D-02

 Cycle   6  Pass 0  IDiag  1:
 RMSU=  4.90D-05    CP:  9.84D-01  6.40D-01  6.97D-01  7.95D-01  7.14D-01
 E= -1201.85320897872     Delta-E=       -0.001328828009 Rises=F Damp=F
 DIIS: error= 4.66D-04 at cycle   6 NSaved=   6.
 NSaved= 6 IEnMin= 6 EnMin= -1201.85320897872     IErMin= 6 ErrMin= 4.66D-04
 ErrMax= 4.66D-04  0.00D+00 EMaxC= 1.00D-01 BMatC= 2.23D-04 BMatP= 1.73D-03
 IDIUse=3 WtCom= 9.95D-01 WtEn= 4.66D-03
 Coeff-Com: -0.298D-02 0.314D-02 0.391D-01 0.134D+00 0.320D+00 0.507D+00
 Coeff-En:   0.000D+00 0.000D+00 0.000D+00 0.000D+00 0.793D-01 0.921D+00
 Coeff:     -0.297D-02 0.313D-02 0.389D-01 0.133D+00 0.319D+00 0.509D+00
 Gap=     0.211 Goal=   None    Shift=    0.000
 RMSDP=3.44D-05 MaxDP=2.83D-03 DE=-1.33D-03 OVMax= 3.24D-03

 Cycle   7  Pass 0  IDiag  1:
 RMSU=  3.16D-05    CP:  9.84D-01  6.42D-01  6.99D-01  8.03D-01  8.04D-01
                    CP:  9.77D-01
 E= -1201.85338453788     Delta-E=       -0.000175559167 Rises=F Damp=F
 DIIS: error= 7.19D-05 at cycle   7 NSaved=   7.
 NSaved= 7 IEnMin= 7 EnMin= -1201.85338453788     IErMin= 7 ErrMin= 7.19D-05
 ErrMax= 7.19D-05  0.00D+00 EMaxC= 1.00D-01 BMatC= 1.66D-05 BMatP= 2.23D-04
 IDIUse=1 WtCom= 1.00D+00 WtEn= 0.00D+00
 Coeff-Com: -0.109D-02-0.101D-02 0.869D-02 0.375D-01 0.125D+00 0.284D+00
 Coeff-Com:  0.547D+00
 Coeff:     -0.109D-02-0.101D-02 0.869D-02 0.375D-01 0.125D+00 0.284D+00
 Coeff:      0.547D+00
 Gap=     0.211 Goal=   None    Shift=    0.000
 RMSDP=2.42D-05 MaxDP=1.54D-03 DE=-1.76D-04 OVMax= 6.18D-04

 Cycle   8  Pass 0  IDiag  1:
 RMSU=  1.50D-05    CP:  9.85D-01  6.43D-01  6.96D-01  8.14D-01  8.67D-01
                    CP:  1.20D+00  1.36D+00
 E= -1201.85339430818     Delta-E=       -0.000009770297 Rises=F Damp=F
 DIIS: error= 3.45D-05 at cycle   8 NSaved=   8.
 NSaved= 8 IEnMin= 8 EnMin= -1201.85339430818     IErMin= 8 ErrMin= 3.45D-05
 ErrMax= 3.45D-05  0.00D+00 EMaxC= 1.00D-01 BMatC= 1.09D-06 BMatP= 1.66D-05
 IDIUse=1 WtCom= 1.00D+00 WtEn= 0.00D+00
 Coeff-Com: -0.269D-03-0.676D-03 0.147D-02 0.851D-02 0.401D-01 0.105D+00
 Coeff-Com:  0.274D+00 0.573D+00
 Coeff:     -0.269D-03-0.676D-03 0.147D-02 0.851D-02 0.401D-01 0.105D+00
 Coeff:      0.274D+00 0.573D+00
 Gap=     0.211 Goal=   None    Shift=    0.000
 RMSDP=3.21D-05 MaxDP=2.25D-03 DE=-9.77D-06 OVMax= 4.26D-04

 Cycle   9  Pass 0  IDiag  1:
 RMSU=  8.40D-06    CP:  9.85D-01  6.44D-01  6.92D-01  8.26D-01  9.48D-01
                    CP:  1.45D+00  2.00D+00  2.00D+00
 E= -1201.85338953953     Delta-E=        0.000004768651 Rises=F Damp=F
 DIIS: error= 3.36D-05 at cycle   9 NSaved=   9.
 NSaved= 9 IEnMin= 8 EnMin= -1201.85339430818     IErMin= 9 ErrMin= 3.36D-05
 ErrMax= 3.36D-05  0.00D+00 EMaxC= 1.00D-01 BMatC= 3.69D-07 BMatP= 1.09D-06
 IDIUse=1 WtCom= 1.00D+00 WtEn= 0.00D+00
 Coeff-Com: -0.179D-04-0.289D-03-0.194D-03 0.366D-03 0.936D-02 0.290D-01
 Coeff-Com:  0.100D+00 0.383D+00 0.478D+00
 Coeff:     -0.179D-04-0.289D-03-0.194D-03 0.366D-03 0.936D-02 0.290D-01
 Coeff:      0.100D+00 0.383D+00 0.478D+00
 Gap=     0.211 Goal=   None    Shift=    0.000
 RMSDP=3.62D-05 MaxDP=2.88D-03 DE= 4.77D-06 OVMax= 1.91D-04

 Cycle  10  Pass 0  IDiag  1:
 RMSU=  6.13D-06    CP:  9.85D-01  6.45D-01  6.87D-01  8.38D-01  1.02D+00
                    CP:  1.72D+00  2.73D+00  3.00D+00  2.19D+00
 E= -1201.85338488845     Delta-E=        0.000004651081 Rises=F Damp=F
 DIIS: error= 4.48D-05 at cycle  10 NSaved=  10.
 NSaved=10 IEnMin= 8 EnMin= -1201.85339430818     IErMin= 9 ErrMin= 3.36D-05
 ErrMax= 4.48D-05  0.00D+00 EMaxC= 1.00D-01 BMatC= 9.35D-08 BMatP= 3.69D-07
 IDIUse=1 WtCom= 1.00D+00 WtEn= 0.00D+00
 Coeff-Com: -0.144D-04-0.234D-03-0.166D-03 0.253D-03 0.756D-02 0.234D-01
 Coeff-Com:  0.810D-01 0.316D+00 0.401D+00 0.171D+00
 Coeff:     -0.144D-04-0.234D-03-0.166D-03 0.253D-03 0.756D-02 0.234D-01
 Coeff:      0.810D-01 0.316D+00 0.401D+00 0.171D+00
 Gap=     0.211 Goal=   None    Shift=    0.000
 RMSDP=1.51D-05 MaxDP=1.25D-03 DE= 4.65D-06 OVMax= 1.05D-05

 Cycle  11  Pass 0  IDiag  1:
 RMSU=  5.79D-06    CP:  9.85D-01  6.45D-01  6.84D-01  8.42D-01  1.06D+00
                    CP:  1.84D+00  3.00D+00  3.00D+00  2.70D+00  1.79D+00
 E= -1201.85338205816     Delta-E=        0.000002830290 Rises=F Damp=F
 DIIS: error= 5.34D-05 at cycle  11 NSaved=  11.
 NSaved=11 IEnMin= 8 EnMin= -1201.85339430818     IErMin= 9 ErrMin= 3.36D-05
 ErrMax= 5.34D-05  0.00D+00 EMaxC= 1.00D-01 BMatC= 1.12D-07 BMatP= 9.35D-08
 IDIUse=1 WtCom= 1.00D+00 WtEn= 0.00D+00
 Coeff-Com:  0.112D-04-0.229D-03-0.409D-03-0.766D-03 0.485D-02 0.174D-01
 Coeff-Com:  0.707D-01 0.340D+00 0.522D+00 0.216D+01-0.211D+01
 Coeff:      0.112D-04-0.229D-03-0.409D-03-0.766D-03 0.485D-02 0.174D-01
 Coeff:      0.707D-01 0.340D+00 0.522D+00 0.216D+01-0.211D+01
 Gap=     0.211 Goal=   None    Shift=    0.000
 RMSDP=6.46D-05 MaxDP=5.94D-03 DE= 2.83D-06 OVMax= 3.84D-05

 Cycle  12  Pass 0  IDiag  1:
 RMSU=  1.68D-05    CP:  9.85D-01  6.45D-01  6.94D-01  8.26D-01  9.47D-01
                    CP:  1.39D+00  1.75D+00  1.88D+00  6.57D-01 -1.87D+00
                    CP:  1.52D-01
 E= -1201.85339035392     Delta-E=       -0.000008295766 Rises=F Damp=F
 DIIS: error= 3.78D-05 at cycle  12 NSaved=  12.
 NSaved=12 IEnMin= 8 EnMin= -1201.85339430818     IErMin= 9 ErrMin= 3.36D-05
 ErrMax= 3.78D-05  0.00D+00 EMaxC= 1.00D-01 BMatC= 3.79D-08 BMatP= 9.35D-08
 IDIUse=1 WtCom= 1.00D+00 WtEn= 0.00D+00
 Coeff-Com:  0.122D-04-0.622D-04-0.256D-03-0.772D-03 0.127D-03 0.221D-02
 Coeff-Com:  0.154D-01 0.118D+00 0.232D+00 0.204D+01-0.234D+01 0.935D+00
 Coeff:      0.122D-04-0.622D-04-0.256D-03-0.772D-03 0.127D-03 0.221D-02
 Coeff:      0.154D-01 0.118D+00 0.232D+00 0.204D+01-0.234D+01 0.935D+00
 Gap=     0.211 Goal=   None    Shift=    0.000
 RMSDP=4.01D-05 MaxDP=3.27D-03 DE=-8.30D-06 OVMax= 2.68D-05

 Cycle  13  Pass 0  IDiag  1:
 RMSU=  1.14D-05    CP:  9.85D-01  6.44D-01  7.00D-01  8.16D-01  8.50D-01
                    CP:  1.08D+00  1.03D+00  9.10D-01 -2.30D-01 -3.00D+00
                    CP:  1.43D-01  1.67D+00
 E= -1201.85339417851     Delta-E=       -0.000003824583 Rises=F Damp=F
 DIIS: error= 1.81D-05 at cycle  13 NSaved=  13.
 NSaved=13 IEnMin= 8 EnMin= -1201.85339430818     IErMin=13 ErrMin= 1.81D-05
 ErrMax= 1.81D-05  0.00D+00 EMaxC= 1.00D-01 BMatC= 1.13D-08 BMatP= 3.79D-08
 IDIUse=1 WtCom= 1.00D+00 WtEn= 0.00D+00
 Coeff-Com:  0.679D-05-0.312D-04-0.154D-03-0.471D-03-0.878D-04 0.996D-03
 Coeff-Com:  0.821D-02 0.644D-01 0.126D+00 0.124D+01-0.147D+01 0.401D+00
 Coeff-Com:  0.629D+00
 Coeff:      0.679D-05-0.312D-04-0.154D-03-0.471D-03-0.878D-04 0.996D-03
 Coeff:      0.821D-02 0.644D-01 0.126D+00 0.124D+01-0.147D+01 0.401D+00
 Coeff:      0.629D+00
 Gap=     0.211 Goal=   None    Shift=    0.000
 RMSDP=1.53D-05 MaxDP=1.28D-03 DE=-3.82D-06 OVMax= 1.18D-05

 Cycle  14  Pass 0  IDiag  1:
 RMSU=  5.95D-06    CP:  9.84D-01  6.43D-01  7.02D-01  8.11D-01  8.02D-01
                    CP:  9.59D-01  8.09D-01  5.99D-01 -5.13D-01 -3.00D+00
                    CP:  1.18D-01  1.67D+00  1.49D+00
 E= -1201.85340010513     Delta-E=       -0.000005926627 Rises=F Damp=F
 DIIS: error= 7.16D-06 at cycle  14 NSaved=  14.
 NSaved=14 IEnMin=14 EnMin= -1201.85340010513     IErMin=14 ErrMin= 7.16D-06
 ErrMax= 7.16D-06  0.00D+00 EMaxC= 1.00D-01 BMatC= 5.95D-09 BMatP= 1.13D-08
 IDIUse=1 WtCom= 1.00D+00 WtEn= 0.00D+00
 Coeff-Com:  0.482D-05-0.215D-04-0.109D-03-0.342D-03-0.155D-03 0.420D-03
 Coeff-Com:  0.504D-02 0.432D-01 0.863D-01 0.840D+00-0.944D+00 0.165D+00
 Coeff-Com:  0.301D+00 0.503D+00
 Coeff:      0.482D-05-0.215D-04-0.109D-03-0.342D-03-0.155D-03 0.420D-03
 Coeff:      0.504D-02 0.432D-01 0.863D-01 0.840D+00-0.944D+00 0.165D+00
 Coeff:      0.301D+00 0.503D+00
 Gap=     0.211 Goal=   None    Shift=    0.000
 RMSDP=5.33D-06 MaxDP=2.99D-04 DE=-5.93D-06 OVMax= 6.62D-06

 Initial convergence to 1.0D-05 achieved.  Increase integral accuracy.
 Cycle  15  Pass 1  IDiag  1:
 E= -1201.85342310138     Delta-E=       -0.000022996241 Rises=F Damp=F
 DIIS: error= 3.12D-04 at cycle   1 NSaved=   1.
 NSaved= 1 IEnMin= 1 EnMin= -1201.85342310138     IErMin= 1 ErrMin= 3.12D-04
 ErrMax= 3.12D-04  0.00D+00 EMaxC= 1.00D-01 BMatC= 3.79D-05 BMatP= 3.79D-05
 IDIUse=3 WtCom= 9.97D-01 WtEn= 3.12D-03
 Coeff-Com:  0.100D+01
 Coeff-En:   0.100D+01
 Coeff:      0.100D+01
 Gap=     0.211 Goal=   None    Shift=    0.000
 RMSDP=5.33D-06 MaxDP=2.99D-04 DE=-2.30D-05 OVMax= 7.47D-04

 Cycle  16  Pass 1  IDiag  1:
 RMSU=  7.33D-04    CP:  9.83D-01
 E= -1201.85344645799     Delta-E=       -0.000023356612 Rises=F Damp=F
 DIIS: error= 3.30D-06 at cycle   2 NSaved=   2.
 NSaved= 2 IEnMin= 2 EnMin= -1201.85344645799     IErMin= 2 ErrMin= 3.30D-06
 ErrMax= 3.30D-06  0.00D+00 EMaxC= 1.00D-01 BMatC= 1.88D-08 BMatP= 3.79D-05
 IDIUse=1 WtCom= 1.00D+00 WtEn= 0.00D+00
 Coeff-Com: -0.699D-02 0.101D+01
 Coeff:     -0.699D-02 0.101D+01
 Gap=     0.211 Goal=   None    Shift=    0.000
 RMSDP=8.97D-06 MaxDP=4.44D-04 DE=-2.34D-05 OVMax= 4.30D-05

 Cycle  17  Pass 1  IDiag  1:
 RMSU=  4.18D-06    CP:  9.83D-01  1.01D+00
 E= -1201.85344645827     Delta-E=       -0.000000000286 Rises=F Damp=F
 DIIS: error= 3.73D-06 at cycle   3 NSaved=   3.
 NSaved= 3 IEnMin= 3 EnMin= -1201.85344645827     IErMin= 2 ErrMin= 3.30D-06
 ErrMax= 3.73D-06  0.00D+00 EMaxC= 1.00D-01 BMatC= 2.86D-08 BMatP= 1.88D-08
 IDIUse=1 WtCom= 1.00D+00 WtEn= 0.00D+00
 Coeff-Com: -0.431D-02 0.577D+00 0.427D+00
 Coeff:     -0.431D-02 0.577D+00 0.427D+00
 Gap=     0.211 Goal=   None    Shift=    0.000
 RMSDP=2.87D-07 MaxDP=2.49D-05 DE=-2.86D-10 OVMax= 2.86D-05

 Cycle  18  Pass 1  IDiag  1:
 RMSU=  2.84D-07    CP:  9.83D-01  1.01D+00  1.00D+00
 E= -1201.85344647821     Delta-E=       -0.000000019940 Rises=F Damp=F
 DIIS: error= 1.26D-06 at cycle   4 NSaved=   4.
 NSaved= 4 IEnMin= 4 EnMin= -1201.85344647821     IErMin= 4 ErrMin= 1.26D-06
 ErrMax= 1.26D-06  0.00D+00 EMaxC= 1.00D-01 BMatC= 2.17D-09 BMatP= 1.88D-08
 IDIUse=1 WtCom= 1.00D+00 WtEn= 0.00D+00
 Coeff-Com: -0.145D-02 0.186D+00 0.233D+00 0.583D+00
 Coeff:     -0.145D-02 0.186D+00 0.233D+00 0.583D+00
 Gap=     0.211 Goal=   None    Shift=    0.000
 RMSDP=1.01D-07 MaxDP=7.33D-06 DE=-1.99D-08 OVMax= 1.44D-05

 Cycle  19  Pass 1  IDiag  1:
 RMSU=  8.36D-08    CP:  9.83D-01  1.01D+00  1.01D+00  9.19D-01
 E= -1201.85344647947     Delta-E=       -0.000000001261 Rises=F Damp=F
 DIIS: error= 7.75D-07 at cycle   5 NSaved=   5.
 NSaved= 5 IEnMin= 5 EnMin= -1201.85344647947     IErMin= 5 ErrMin= 7.75D-07
 ErrMax= 7.75D-07  0.00D+00 EMaxC= 1.00D-01 BMatC= 4.41D-10 BMatP= 2.17D-09
 IDIUse=1 WtCom= 1.00D+00 WtEn= 0.00D+00
 Coeff-Com: -0.122D-03 0.104D-01 0.615D-01 0.353D+00 0.575D+00
 Coeff:     -0.122D-03 0.104D-01 0.615D-01 0.353D+00 0.575D+00
 Gap=     0.211 Goal=   None    Shift=    0.000
 RMSDP=3.99D-08 MaxDP=1.68D-06 DE=-1.26D-09 OVMax= 7.67D-06

 Cycle  20  Pass 1  IDiag  1:
 RMSU=  3.12D-08    CP:  9.83D-01  1.01D+00  1.02D+00  9.61D-01  8.96D-01
 E= -1201.85344647985     Delta-E=       -0.000000000380 Rises=F Damp=F
 DIIS: error= 3.38D-07 at cycle   6 NSaved=   6.
 NSaved= 6 IEnMin= 6 EnMin= -1201.85344647985     IErMin= 6 ErrMin= 3.38D-07
 ErrMax= 3.38D-07  0.00D+00 EMaxC= 1.00D-01 BMatC= 5.48D-11 BMatP= 4.41D-10
 IDIUse=1 WtCom= 1.00D+00 WtEn= 0.00D+00
 Coeff-Com:  0.464D-04-0.926D-02 0.191D-01 0.163D+00 0.350D+00 0.478D+00
 Coeff:      0.464D-04-0.926D-02 0.191D-01 0.163D+00 0.350D+00 0.478D+00
 Gap=     0.211 Goal=   None    Shift=    0.000
 RMSDP=1.25D-08 MaxDP=5.87D-07 DE=-3.80D-10 OVMax= 2.61D-06

 Cycle  21  Pass 1  IDiag  1:
 RMSU=  1.13D-08    CP:  9.83D-01  1.01D+00  1.02D+00  9.54D-01  9.03D-01
                    CP:  8.98D-01
 E= -1201.85344647991     Delta-E=       -0.000000000053 Rises=F Damp=F
 DIIS: error= 7.17D-08 at cycle   7 NSaved=   7.
 NSaved= 7 IEnMin= 7 EnMin= -1201.85344647991     IErMin= 7 ErrMin= 7.17D-08
 ErrMax= 7.17D-08  0.00D+00 EMaxC= 1.00D-01 BMatC= 4.10D-12 BMatP= 5.48D-11
 IDIUse=1 WtCom= 1.00D+00 WtEn= 0.00D+00
 Coeff-Com:  0.379D-04-0.642D-02 0.696D-02 0.686D-01 0.161D+00 0.281D+00
 Coeff-Com:  0.489D+00
 Coeff:      0.379D-04-0.642D-02 0.696D-02 0.686D-01 0.161D+00 0.281D+00
 Coeff:      0.489D+00
 Gap=     0.211 Goal=   None    Shift=    0.000
 RMSDP=3.30D-09 MaxDP=2.23D-07 DE=-5.28D-11 OVMax= 5.96D-07

 SCF Done:  E(RB3LYP) =  -1201.85344648     A.U. after   21 cycles
            NFock= 21  Conv=0.33D-08     -V/T= 2.0039
 KE= 1.197180647967D+03 PE=-5.893280825498D+03 EE= 1.957156215194D+03
 Leave Link  502 at Wed Sep 27 14:40:36 2017, MaxMem=  1879048192 cpu:      4483.6
 (Enter /net/software/local/gaussian09/E.01/g09/l801.exe)
 DoSCS=F DFT=T ScalE2(SS,OS)=  1.000000  1.000000
 ExpMin= 9.52D-02 ExpMax= 6.07D+04 ExpMxC= 2.07D+03 IAcc=3 IRadAn=         5 AccDes= 0.00D+00
 HarFok:  IExCor=  205 AccDes= 0.00D+00 IRadAn=         5 IDoV=-2 UseB2=F ITyADJ=14
 ICtDFT= 12500011 ScaDFX=  1.000000  1.000000  1.000000  1.000000
 Largest valence mixing into a core orbital is  9.24D-05
 Largest core mixing into a valence orbital is  2.14D-05
 Range of M.O.s used for correlation:    23   672
 NBasis=   672 NAE=    72 NBE=    72 NFC=    22 NFV=     0
 NROrb=    650 NOA=    50 NOB=    50 NVA=   600 NVB=   600

 **** Warning!!: The largest alpha MO coefficient is  0.59373846D+02

 Leave Link  801 at Wed Sep 27 14:40:37 2017, MaxMem=  1879048192 cpu:         2.9
 (Enter /net/software/local/gaussian09/E.01/g09/l914.exe)
 RHF ground state
 MDV=  1879048192 DFT=T DoStab=F Mixed=T DoRPA=T DoScal=F NonHer=T
 Would need an additional         81548000000 words for in-memory AO integral storage.
 Making orbital integer symmetry assigments:
 Orbital symmetries:
       Occupied  (A) (A) (A) (A) (A) (A) (A) (A) (A) (A) (A) (A)
                 (A) (A) (A) (A) (A) (A) (A) (A) (A) (A) (A) (A)
                 (A) (A) (A) (A) (A) (A) (A) (A) (A) (A) (A) (A)
                 (A) (A) (A) (A) (A) (A) (A) (A) (A) (A) (A) (A)
                 (A) (A) (A) (A) (A) (A) (A) (A) (A) (A) (A) (A)
                 (A) (A) (A) (A) (A) (A) (A) (A) (A) (A) (A) (A)
       Virtual   (A) (A) (A) (A) (A) (A) (A) (A) (A) (A) (A) (A)
                 (A) (A) (A) (A) (A) (A) (A) (A) (A) (A) (A) (A)
                 (A) (A) (A) (A) (A) (A) (A) (A) (A) (A) (A) (A)
                 (A) (A) (A) (A) (A) (A) (A) (A) (A) (A) (A) (A)
                 (A) (A) (A) (A) (A) (A) (A) (A) (A) (A) (A) (A)
                 (A) (A) (A) (A) (A) (A) (A) (A) (A) (A) (A) (A)
                 (A) (A) (A) (A) (A) (A) (A) (A) (A) (A) (A) (A)
                 (A) (A) (A) (A) (A) (A) (A) (A) (A) (A) (A) (A)
                 (A) (A) (A) (A) (A) (A) (A) (A) (A) (A) (A) (A)
                 (A) (A) (A) (A) (A) (A) (A) (A) (A) (A) (A) (A)
                 (A) (A) (A) (A) (A) (A) (A) (A) (A) (A) (A) (A)
                 (A) (A) (A) (A) (A) (A) (A) (A) (A) (A) (A) (A)
                 (A) (A) (A) (A) (A) (A) (A) (A) (A) (A) (A) (A)
                 (A) (A) (A) (A) (A) (A) (A) (A) (A) (A) (A) (A)
                 (A) (A) (A) (A) (A) (A) (A) (A) (A) (A) (A) (A)
                 (A) (A) (A) (A) (A) (A) (A) (A) (A) (A) (A) (A)
                 (A) (A) (A) (A) (A) (A) (A) (A) (A) (A) (A) (A)
                 (A) (A) (A) (A) (A) (A) (A) (A) (A) (A) (A) (A)
                 (A) (A) (A) (A) (A) (A) (A) (A) (A) (A) (A) (A)
                 (A) (A) (A) (A) (A) (A) (A) (A) (A) (A) (A) (A)
                 (A) (A) (A) (A) (A) (A) (A) (A) (A) (A) (A) (A)
                 (A) (A) (A) (A) (A) (A) (A) (A) (A) (A) (A) (A)
                 (A) (A) (A) (A) (A) (A) (A) (A) (A) (A) (A) (A)
                 (A) (A) (A) (A) (A) (A) (A) (A) (A) (A) (A) (A)
                 (A) (A) (A) (A) (A) (A) (A) (A) (A) (A) (A) (A)
                 (A) (A) (A) (A) (A) (A) (A) (A) (A) (A) (A) (A)
                 (A) (A) (A) (A) (A) (A) (A) (A) (A) (A) (A) (A)
                 (A) (A) (A) (A) (A) (A) (A) (A) (A) (A) (A) (A)
                 (A) (A) (A) (A) (A) (A) (A) (A) (A) (A) (A) (A)
                 (A) (A) (A) (A) (A) (A) (A) (A) (A) (A) (A) (A)
                 (A) (A) (A) (A) (A) (A) (A) (A) (A) (A) (A) (A)
                 (A) (A) (A) (A) (A) (A) (A) (A) (A) (A) (A) (A)
                 (A) (A) (A) (A) (A) (A) (A) (A) (A) (A) (A) (A)
                 (A) (A) (A) (A) (A) (A) (A) (A) (A) (A) (A) (A)
                 (A) (A) (A) (A) (A) (A) (A) (A) (A) (A) (A) (A)
                 (A) (A) (A) (A) (A) (A) (A) (A) (A) (A) (A) (A)
                 (A) (A) (A) (A) (A) (A) (A) (A) (A) (A) (A) (A)
                 (A) (A) (A) (A) (A) (A) (A) (A) (A) (A) (A) (A)
                 (A) (A) (A) (A) (A) (A) (A) (A) (A) (A) (A) (A)
                 (A) (A) (A) (A) (A) (A) (A) (A) (A) (A) (A) (A)
                 (A) (A) (A) (A) (A) (A) (A) (A) (A) (A) (A) (A)
                 (A) (A) (A) (A) (A) (A) (A) (A) (A) (A) (A) (A)
                 (A) (A) (A) (A) (A) (A) (A) (A) (A) (A) (A) (A)
                 (A) (A) (A) (A) (A) (A) (A) (A) (A) (A) (A) (A)
                 (A) (A) (A) (A) (A) (A) (A) (A) (A) (A) (A) (A)
                 (A) (A) (A) (A) (A) (A) (A) (A) (A) (A) (A) (A)
                 (A) (A) (A) (A) (A) (A) (A) (A) (A) (A) (A) (A)
                 (A) (A) (A) (A) (A) (A) (A) (A) (A) (A) (A) (A)
                 (A) (A) (A) (A) (A) (A) (A) (A) (A) (A) (A) (A)
                 (A) (A) (A) (A) (A) (A) (A) (A) (A) (A) (A) (A)
   320 initial guesses have been made.
 Convergence on wavefunction:    0.001000000000000
 Davidson Disk Diagonalization:  ConvIn= 1.00D-03 SkipCon=T Conv= 1.00D-03.
 Max sub-space:  1280 roots to seek:   320 dimension of matrix:        60000
 Iteration     1 Dimension   320 NMult     0 NNew    320
 CISAX will form   320 AO SS matrices at one time.
 NMat=   320 NSing=   320 JSym2X= 0.
 FoFJK:  IHMeth= 1 ICntrl=       0 DoSepK=F KAlg= 0 I1Cent=   0 FoldK=F
 IRaf=         0 NMat= 640 IRICut=     800 DoRegI=T DoRafI=T ISym2E= 0.
 FoFCou: FMM=F IPFlag=           0 FMFlag=      100000 FMFlg1=           0
         NFxFlg=           0 DoJE=F BraDBF=F KetDBF=F FulRan=T
         wScrn=  0.000000 ICntrl=       0 IOpCl=  0 I1Cent=           0 NGrid=           0
         NMat0=  640 NMatS0=    320 NMatT0=    0 NMatD0=  640 NMtDS0=    0 NMtDT0=    0
 Symmetry not used in FoFCou.
 New state      2 was old state      5
 New state      5 was old state      2
 New state      6 was old state      7
 New state      7 was old state      9
 New state      8 was old state     10
 New state      9 was old state     11
 New state     10 was old state     30
 New state     11 was old state     16
 New state     12 was old state     13
 New state     13 was old state     18
 New state     14 was old state     15
 New state     15 was old state     12
 New state     16 was old state     14
 New state     17 was old state     19
 New state     18 was old state     26
 New state     19 was old state     21
 New state     20 was old state     24
 New state     21 was old state     34
 New state     22 was old state     31
 New state     23 was old state     20
 New state     24 was old state     28
 New state     25 was old state     23
 New state     26 was old state     25
 New state     28 was old state     33
 New state     30 was old state     32
 New state     31 was old state     48
 New state     32 was old state     50
 New state     33 was old state     17
 New state     34 was old state     36
 New state     35 was old state     37
 New state     36 was old state     41
 New state     37 was old state     40
 New state     38 was old state     43
 New state     39 was old state     51
 New state     40 was old state     39
 New state     41 was old state     35
 New state     42 was old state     45
 New state     43 was old state     44
 New state     44 was old state     38
 New state     45 was old state     67
 New state     47 was old state     42
 New state     48 was old state     62
 New state     49 was old state     57
 New state     50 was old state     49
 New state     51 was old state     47
 New state     52 was old state     72
 New state     53 was old state     59
 New state     54 was old state     77
 New state     55 was old state     56
 New state     56 was old state     53
 New state     57 was old state     54
 New state     58 was old state     64
 New state     59 was old state     52
 New state     60 was old state     63
 New state     61 was old state     58
 New state     62 was old state     66
 New state     63 was old state     71
 New state     64 was old state     55
 New state     65 was old state     61
 New state     66 was old state     73
 New state     67 was old state     68
 New state     68 was old state     82
 New state     69 was old state     70
 New state     70 was old state     74
 New state     71 was old state     65
 New state     72 was old state     76
 New state     73 was old state     87
 New state     74 was old state     78
 New state     75 was old state     85
 New state     76 was old state     75
 New state     77 was old state     69
 New state     78 was old state     83
 New state     79 was old state     80
 New state     80 was old state     84
 Excitation Energies [eV] at current iteration:
 Root      1 :     5.141732255097360
 Root      2 :     5.233967043930444
 Root      3 :     5.406149582659125
 Root      4 :     5.620575942129896
 Root      5 :     5.890349590264196
 Root      6 :     5.971250454064979
 Root      7 :     6.404301359422981
 Root      8 :     6.569733872445544
 Root      9 :     6.663359533878038
 Root     10 :     6.672075210163606
 Root     11 :     6.800350239067596
 Root     12 :     6.888002263205292
 Root     13 :     6.983474159898668
 Root     14 :     7.016351109863761
 Root     15 :     7.084545423981004
 Root     16 :     7.119759155242919
 Root     17 :     7.219244009490241
 Root     18 :     7.256527239631056
 Root     19 :     7.285877319470177
 Root     20 :     7.306144793850432
 Root     21 :     7.333952023683549
 Root     22 :     7.378073737618987
 Root     23 :     7.435097716267372
 Root     24 :     7.483749814409957
 Root     25 :     7.525787736066996
 Root     26 :     7.566173563514804
 Root     27 :     7.575693643231679
 Root     28 :     7.583404236311226
 Root     29 :     7.602372560664916
 Root     30 :     7.619156721562586
 Root     31 :     7.673001828127008
 Root     32 :     7.746142732161143
 Root     33 :     7.755424270873343
 Root     34 :     7.782057061578015
 Root     35 :     7.833221560507166
 Root     36 :     7.839357299598571
 Root     37 :     7.880692451831228
 Root     38 :     7.911791112240778
 Root     39 :     7.936064450202903
 Root     40 :     7.947411920654270
 Root     41 :     8.001172906159450
 Root     42 :     8.020027917081450
 Root     43 :     8.059642310696583
 Root     44 :     8.067190544565952
 Root     45 :     8.075664127153820
 Root     46 :     8.137354358704259
 Root     47 :     8.147378908072429
 Root     48 :     8.215822790201956
 Root     49 :     8.265019013695053
 Root     50 :     8.270079669374313
 Root     51 :     8.278116672603106
 Root     52 :     8.299579162059018
 Root     53 :     8.312265397816510
 Root     54 :     8.331442925922108
 Root     55 :     8.368161339123189
 Root     56 :     8.375867898963559
 Root     57 :     8.403045841522902
 Root     58 :     8.465292190895459
 Root     59 :     8.505932924276960
 Root     60 :     8.517231605170958
 Root     61 :     8.601393491076234
 Root     62 :     8.614255575890864
 Root     63 :     8.616642902415997
 Root     64 :     8.628978050375226
 Root     65 :     8.639774198666487
 Root     66 :     8.672013780248312
 Root     67 :     8.679611158864798
 Root     68 :     8.695446526108411
 Root     69 :     8.699546066145611
 Root     70 :     8.734534301052228
 Root     71 :     8.745563517832773
 Root     72 :     8.762131116140315
 Root     73 :     8.775856005733075
 Root     74 :     8.790976928036526
 Root     75 :     8.834173192712445
 Root     76 :     8.847189958219492
 Root     77 :     8.870013273553228
 Root     78 :     8.886780251746437
 Root     79 :     8.892916756140833
 Root     80 :     8.900811063872945
 Root     81 :     8.906590107703474
 Root     82 :     8.933615571695540
 Root     83 :     8.961127041226721
 Root     84 :     8.977418782427948
 Root     85 :     8.998527782345782
 Root     86 :     9.049245659006047
 Root     87 :     9.068514373016178
 Root     88 :     9.080205641815139
 Root     89 :     9.084546266904567
 Root     90 :     9.110264192239660
 Root     91 :     9.120037730875598
 Root     92 :     9.138923573343211
 Root     93 :     9.164756799796427
 Root     94 :     9.171135557118966
 Root     95 :     9.211750137854976
 Root     96 :     9.226582961944645
 Root     97 :     9.239140591855648
 Root     98 :     9.252129006338457
 Root     99 :     9.274345752380198
 Root    100 :     9.280760987513819
 Root    101 :     9.299548413219222
 Root    102 :     9.323785035784537
 Root    103 :     9.355917960909604
 Root    104 :     9.377801759278835
 Root    105 :     9.394600493550659
 Root    106 :     9.400829416288488
 Root    107 :     9.415243314862810
 Root    108 :     9.438691484137568
 Root    109 :     9.442653001049447
 Root    110 :     9.443877040373136
 Root    111 :     9.461180100998870
 Root    112 :     9.470094459723050
 Root    113 :     9.485605018721838
 Root    114 :     9.489523733372145
 Root    115 :     9.502898827684456
 Root    116 :     9.513585600358393
 Root    117 :     9.532052540574934
 Root    118 :     9.558898000134151
 Root    119 :     9.583137938443295
 Root    120 :     9.588947231884204
 Root    121 :     9.597413027705981
 Root    122 :     9.607103089735551
 Root    123 :     9.618413218600633
 Root    124 :     9.630160178130957
 Root    125 :     9.643673435676821
 Root    126 :     9.651793679171073
 Root    127 :     9.678114207469143
 Root    128 :     9.682918909260467
 Root    129 :     9.721118554401157
 Root    130 :     9.732991582400427
 Root    131 :     9.740433989590496
 Root    132 :     9.750240665760785
 Root    133 :     9.770415164281935
 Root    134 :     9.773923923785674
 Root    135 :     9.780644761299250
 Root    136 :     9.799345326302449
 Root    137 :     9.807275167706639
 Root    138 :     9.819343858543231
 Root    139 :     9.830526554248413
 Root    140 :     9.837932021219970
 Root    141 :     9.839700742807924
 Root    142 :     9.857335437401860
 Root    143 :     9.878442683669320
 Root    144 :     9.879562278338765
 Root    145 :     9.891031480470190
 Root    146 :     9.894319967620053
 Root    147 :     9.907173860644782
 Root    148 :     9.915019607878055
 Root    149 :     9.920308517484118
 Root    150 :     9.928681723689808
 Root    151 :     9.932430866851989
 Root    152 :     9.954462458483025
 Root    153 :     9.958939209387392
 Root    154 :     9.964187263407505
 Root    155 :     9.973636214162125
 Root    156 :     9.981305718363517
 Root    157 :     9.999706365069839
 Root    158 :    10.014789443462660
 Root    159 :    10.020609899934050
 Root    160 :    10.026252808916690
 Root    161 :    10.039771484406290
 Root    162 :    10.048241310361630
 Root    163 :    10.059303856734830
 Root    164 :    10.064265938515740
 Root    165 :    10.081819390995630
 Root    166 :    10.086524491732410
 Root    167 :    10.109383187814450
 Root    168 :    10.121992154427660
 Root    169 :    10.132466426253160
 Root    170 :    10.144864708574040
 Root    171 :    10.152452431509350
 Root    172 :    10.158925497357840
 Root    173 :    10.172174881298730
 Root    174 :    10.184454647855690
 Root    175 :    10.196585282711870
 Root    176 :    10.206264142540900
 Root    177 :    10.214991478750670
 Root    178 :    10.221533649363580
 Root    179 :    10.231751039827600
 Root    180 :    10.245004756841520
 Root    181 :    10.247765726325600
 Root    182 :    10.252992348671510
 Root    183 :    10.261921533142290
 Root    184 :    10.273392941644340
 Root    185 :    10.276457028427710
 Root    186 :    10.289776728485290
 Root    187 :    10.296283574976300
 Root    188 :    10.305566977275160
 Root    189 :    10.317600150506730
 Root    190 :    10.322972886259270
 Root    191 :    10.325416025303010
 Root    192 :    10.338240948566700
 Root    193 :    10.342157604317960
 Root    194 :    10.356472984476320
 Root    195 :    10.362358428348430
 Root    196 :    10.371004216424940
 Root    197 :    10.378313319819350
 Root    198 :    10.387113820365590
 Root    199 :    10.393898823869870
 Root    200 :    10.398450710639880
 Root    201 :    10.422383363350770
 Root    202 :    10.427920616027960
 Root    203 :    10.438941893931740
 Root    204 :    10.447880342168090
 Root    205 :    10.453765624211530
 Root    206 :    10.471429313811160
 Root    207 :    10.483035553915800
 Root    208 :    10.486860171898400
 Root    209 :    10.498988168916000
 Root    210 :    10.512005976944860
 Root    211 :    10.526610719067800
 Root    212 :    10.536258442634990
 Root    213 :    10.543315434415640
 Root    214 :    10.550639813139490
 Root    215 :    10.557720249001870
 Root    216 :    10.569427517666200
 Root    217 :    10.571339577119570
 Root    218 :    10.574879456609030
 Root    219 :    10.584875347055280
 Root    220 :    10.591832934988330
 Root    221 :    10.600097677579960
 Root    222 :    10.609084323584210
 Root    223 :    10.616851355738620
 Root    224 :    10.621609610672100
 Root    225 :    10.624216466660130
 Root    226 :    10.639544962653090
 Root    227 :    10.641676371937790
 Root    228 :    10.655398797577680
 Root    229 :    10.664587614059400
 Root    230 :    10.669396686108250
 Root    231 :    10.677081230369340
 Root    232 :    10.684386231425420
 Root    233 :    10.690646633419660
 Root    234 :    10.697989448537470
 Root    235 :    10.700387286898210
 Root    236 :    10.708660075176630
 Root    237 :    10.722888841720170
 Root    238 :    10.728456696323180
 Root    239 :    10.743171161398480
 Root    240 :    10.746836146042410
 Root    241 :    10.755076644000220
 Root    242 :    10.777825834845200
 Root    243 :    10.786716064271450
 Root    244 :    10.799815056971280
 Root    245 :    10.809114347999790
 Root    246 :    10.816507690817930
 Root    247 :    10.821468920693200
 Root    248 :    10.833941041820670
 Root    249 :    10.845583358607500
 Root    250 :    10.854572670446870
 Root    251 :    10.860541632513520
 Root    252 :    10.870884892065530
 Root    253 :    10.873019956293230
 Root    254 :    10.879348370862780
 Root    255 :    10.905253318843600
 Root    256 :    10.908921381795390
 Root    257 :    10.920531422468350
 Root    258 :    10.926018570707790
 Root    259 :    10.927278284039370
 Root    260 :    10.933643139477900
 Root    261 :    10.943618481312580
 Root    262 :    10.947118773471690
 Root    263 :    10.949016252271110
 Root    264 :    10.961662520896820
 Root    265 :    10.966867598399810
 Root    266 :    10.967321247416330
 Root    267 :    10.975797847764290
 Root    268 :    10.989906696682630
 Root    269 :    10.994422332787920
 Root    270 :    10.997531584281280
 Root    271 :    11.015336028162780
 Root    272 :    11.030766909341920
 Root    273 :    11.038230577343040
 Root    274 :    11.043538087859080
 Root    275 :    11.049526865116430
 Root    276 :    11.053502819519710
 Root    277 :    11.070838829150950
 Root    278 :    11.083558227964430
 Root    279 :    11.103916892764770
 Root    280 :    11.110923095795600
 Root    281 :    11.117918757251240
 Root    282 :    11.123188977769210
 Root    283 :    11.137185676641860
 Root    284 :    11.141464077710110
 Root    285 :    11.150513413549450
 Root    286 :    11.154760398795990
 Root    287 :    11.162962307571550
 Root    288 :    11.185962033579880
 Root    289 :    11.188493247255380
 Root    290 :    11.201190902364690
 Root    291 :    11.220422691817630
 Root    292 :    11.239424801201280
 Root    293 :    11.248710902413050
 Root    294 :    11.260547339770780
 Root    295 :    11.262760272481970
 Root    296 :    11.275359446161380
 Root    297 :    11.279445899320560
 Root    298 :    11.294934399863910
 Root    299 :    11.305210367371830
 Root    300 :    11.308802625252340
 Root    301 :    11.328399028144000
 Root    302 :    11.336043034986560
 Root    303 :    11.338499127697180
 Root    304 :    11.347260106452890
 Root    305 :    11.362248236975300
 Root    306 :    11.377339585654720
 Root    307 :    11.384037463701740
 Root    308 :    11.400127264820680
 Root    309 :    11.410304206295790
 Root    310 :    11.422573961190010
 Root    311 :    11.441421146903400
 Root    312 :    11.445592659748240
 Root    313 :    11.472076088320620
 Root    314 :    11.475028665620620
 Root    315 :    11.525064271534310
 Root    316 :    11.593447587256580
 Root    317 :    11.852276293738990
 Root    318 :    11.989181066655600
 Root    319 :    12.201113137103500
 Root    320 :    12.487558035426250
 Iteration     2 Dimension   480 NMult   320 NNew    160
 CISAX will form   160 AO SS matrices at one time.
 NMat=   160 NSing=   160 JSym2X= 0.
 Root      1 not converged, maximum delta is    0.159612116487462
 Root      2 not converged, maximum delta is    0.201633743008990
 Root      3 not converged, maximum delta is    0.222079447637353
 New state      4 was old state      5
 Root      4 not converged, maximum delta is    0.291154818759135
 New state      5 was old state      4
 Root      5 not converged, maximum delta is    0.213725270265520
 Root      6 not converged, maximum delta is    0.062145564449719
 Root      7 not converged, maximum delta is    0.144225337224687
 Root      8 not converged, maximum delta is    0.332929192037133
 Root      9 not converged, maximum delta is    0.216137755892133
 Root     10 not converged, maximum delta is    0.189749236255694
 Root     11 not converged, maximum delta is    0.312263811813344
 New state     12 was old state     13
 Root     12 not converged, maximum delta is    0.411873933928042
 New state     13 was old state     12
 Root     13 not converged, maximum delta is    0.226406966211933
 Root     14 not converged, maximum delta is    0.552594890822563
 New state     15 was old state     19
 Root     15 not converged, maximum delta is    0.631264046158652
 New state     16 was old state     15
 Root     16 not converged, maximum delta is    0.290112287780214
 New state     17 was old state     16
 Root     17 not converged, maximum delta is    0.301426436924697
 New state     18 was old state     17
 Root     18 not converged, maximum delta is    0.385848202495733
 New state     19 was old state     18
 Root     19 not converged, maximum delta is    0.355019044989845
 New state     20 was old state     23
 Root     20 not converged, maximum delta is    0.403181836228176
 New state     21 was old state     20
 Root     21 not converged, maximum delta is    0.398891534669726
 New state     22 was old state     21
 Root     22 not converged, maximum delta is    0.186896882250903
 New state     23 was old state     22
 Root     23 not converged, maximum delta is    0.395485414765278
 New state     24 was old state     30
 Root     24 not converged, maximum delta is    0.456329590404185
 New state     25 was old state     24
 Root     25 not converged, maximum delta is    0.294207627293815
 New state     26 was old state     25
 Root     26 not converged, maximum delta is    0.107238928843592
 New state     27 was old state     26
 Root     27 not converged, maximum delta is    0.270640719097615
 New state     28 was old state     27
 Root     28 not converged, maximum delta is    0.320393900348325
 New state     29 was old state     28
 Root     29 not converged, maximum delta is    0.064695364347467
 New state     30 was old state     29
 Root     30 not converged, maximum delta is    0.124205628742887
 New state     31 was old state     33
 Root     31 not converged, maximum delta is    0.283699820747173
 New state     32 was old state     31
 Root     32 not converged, maximum delta is    0.217773339802818
 New state     33 was old state     34
 Root     33 not converged, maximum delta is    0.444021680190078
 New state     34 was old state     32
 Root     34 not converged, maximum delta is    0.159072912464400
 New state     35 was old state     37
 Root     35 not converged, maximum delta is    0.283067922213630
 Root     36 not converged, maximum delta is    0.236957237531895
 New state     37 was old state     35
 Root     37 not converged, maximum delta is    0.289925657071265
 New state     38 was old state     39
 Root     38 not converged, maximum delta is    0.203467225785357
 New state     39 was old state     38
 Root     39 not converged, maximum delta is    0.238842785790380
 Root     40 not converged, maximum delta is    0.197782558602143
 New state     41 was old state     43
 Root     41 not converged, maximum delta is    0.344077731328566
 New state     42 was old state     41
 Root     42 not converged, maximum delta is    0.356891362623646
 New state     43 was old state     42
 Root     43 not converged, maximum delta is    0.411997403732336
 New state     44 was old state     45
 Root     44 not converged, maximum delta is    0.452129195070362
 New state     45 was old state     44
 Root     45 not converged, maximum delta is    0.110386496006458
 Root     46 not converged, maximum delta is    0.269009111257327
 Root     47 not converged, maximum delta is    0.110024468909830
 Root     48 not converged, maximum delta is    0.209714820884355
 Root     49 not converged, maximum delta is    0.164246822149288
 Root     50 not converged, maximum delta is    0.308607880105361
 Root     51 not converged, maximum delta is    0.242718793506375
 Root     52 not converged, maximum delta is    0.217538002004644
 Root     53 not converged, maximum delta is    0.119354035753827
 Root     54 not converged, maximum delta is    0.098721615669697
 Root     55 not converged, maximum delta is    0.256386819777724
 Root     56 not converged, maximum delta is    0.223842600271865
 New state     57 was old state     58
 Root     57 not converged, maximum delta is    0.256264130555028
 New state     58 was old state     57
 Root     58 not converged, maximum delta is    0.220356236274500
 New state     59 was old state     60
 Root     59 not converged, maximum delta is    0.291317801285816
 New state     60 was old state     59
 Root     60 not converged, maximum delta is    0.089428278736596
 New state     61 was old state     62
 Root     61 not converged, maximum delta is    0.373813997339698
 New state     62 was old state     63
 Root     62 not converged, maximum delta is    0.277939043415978
 New state     63 was old state     61
 Root     63 not converged, maximum delta is    0.372946881463061
 Root     64 not converged, maximum delta is    0.501864660857521
 Root     65 not converged, maximum delta is    0.247045995921155
 New state     66 was old state     67
 Root     66 not converged, maximum delta is    0.510793692969189
 New state     67 was old state     66
 Root     67 not converged, maximum delta is    0.224354887152482
 Root     68 not converged, maximum delta is    0.203099775135894
 Root     69 not converged, maximum delta is    0.427827042835891
 Root     70 not converged, maximum delta is    0.416329148977338
 New state     71 was old state     73
 Root     71 not converged, maximum delta is    0.396657022308904
 New state     72 was old state     71
 Root     72 not converged, maximum delta is    0.281104564747306
 New state     73 was old state     74
 Root     73 not converged, maximum delta is    0.364633813226471
 New state     74 was old state     72
 Root     74 not converged, maximum delta is    0.183482295057613
 Root     75 not converged, maximum delta is    0.172278936581652
 Root     76 not converged, maximum delta is    0.186719473518610
 Root     77 not converged, maximum delta is    0.365693478344118
 New state     78 was old state     79
 Root     78 not converged, maximum delta is    0.542253151445561
 New state     79 was old state     80
 Root     79 not converged, maximum delta is    0.240388431591339
 New state     80 was old state     78
 Root     80 not converged, maximum delta is    0.240004106063932
 Excitation Energies [eV] at current iteration:
 Root      1 :     5.099827589373832   Change is   -0.041904665723528
 Root      2 :     5.176201398045704   Change is   -0.057765645884740
 Root      3 :     5.328119947641628   Change is   -0.078029635017498
 Root      4 :     5.544088940203178   Change is   -0.346260650061018
 Root      5 :     5.623759954397375   Change is    0.003184012267479
 Root      6 :     5.955364685269279   Change is   -0.015885768795700
 Root      7 :     6.200133936380264   Change is   -0.204167423042718
 Root      8 :     6.341438398124886   Change is   -0.228295474320657
 Root      9 :     6.519703255515008   Change is   -0.143656278363030
 Root     10 :     6.628515267770807   Change is   -0.043559942392800
 Root     11 :     6.694361639888842   Change is   -0.105988599178753
 Root     12 :     6.710642426741261   Change is   -0.272831733157407
 Root     13 :     6.835235833884727   Change is   -0.052766429320565
 Root     14 :     6.880867905083074   Change is   -0.135483204780687
 Root     15 :     7.015556837908290   Change is   -0.270320481561887
 Root     16 :     7.054637616951376   Change is   -0.029907807029629
 Root     17 :     7.097935322243607   Change is   -0.021823832999312
 Root     18 :     7.140511725320842   Change is   -0.078732284169399
 Root     19 :     7.200160206173445   Change is   -0.056367033457610
 Root     20 :     7.246103392529620   Change is   -0.188994323737753
 Root     21 :     7.272200438658059   Change is   -0.033944355192373
 Root     22 :     7.289939606015432   Change is   -0.044012417668118
 Root     23 :     7.298152556144868   Change is   -0.079921181474118
 Root     24 :     7.350489154664518   Change is   -0.268667566898068
 Root     25 :     7.449679834768152   Change is   -0.034069979641805
 Root     26 :     7.527196044967346   Change is    0.001408308900351
 Root     27 :     7.551498929782937   Change is   -0.014674633731866
 Root     28 :     7.563223061706651   Change is   -0.012470581525028
 Root     29 :     7.577893395868241   Change is   -0.005510840442986
 Root     30 :     7.589121883780564   Change is   -0.013250676884352
 Root     31 :     7.608716616726379   Change is   -0.146707654146964
 Root     32 :     7.640970654416178   Change is   -0.032031173710830
 Root     33 :     7.650968216409998   Change is   -0.131088845168017
 Root     34 :     7.713468864633439   Change is   -0.032673867527704
 Root     35 :     7.738834038853881   Change is   -0.141858412977348
 Root     36 :     7.749961648881230   Change is   -0.089395650717342
 Root     37 :     7.816142492446098   Change is   -0.017079068061068
 Root     38 :     7.856294137900561   Change is   -0.079770312302342
 Root     39 :     7.874479308736646   Change is   -0.037311803504131
 Root     40 :     7.920253844808040   Change is   -0.027158075846230
 Root     41 :     7.966901763335240   Change is   -0.092740547361343
 Root     42 :     7.971875201846538   Change is   -0.029297704312913
 Root     43 :     8.007865547555339   Change is   -0.012162369526110
 Root     44 :     8.014163602991394   Change is   -0.061500524162426
 Root     45 :     8.048279390888833   Change is   -0.018911153677117
 Root     46 :     8.088424834118271   Change is   -0.048929524585987
 Root     47 :     8.138816320701885   Change is   -0.008562587370544
 Root     48 :     8.171273540804290   Change is   -0.044549249397667
 Root     49 :     8.237291973129643   Change is   -0.027727040565409
 Root     50 :     8.244539738905040   Change is   -0.025539930469273
 Root     51 :     8.252205136493945   Change is   -0.025911536109162
 Root     52 :     8.258539786369974   Change is   -0.041039375689044
 Root     53 :     8.281962492916479   Change is   -0.030302904900031
 Root     54 :     8.307861403517229   Change is   -0.023581522404879
 Root     55 :     8.326053955681372   Change is   -0.042107383441816
 Root     56 :     8.337435607171956   Change is   -0.038432291791603
 Root     57 :     8.376947148074423   Change is   -0.088345042821035
 Root     58 :     8.381967473741367   Change is   -0.021078367781534
 Root     59 :     8.446240639850046   Change is   -0.070990965320912
 Root     60 :     8.490608295800758   Change is   -0.015324628476203
 Root     61 :     8.544854182642897   Change is   -0.069401393247967
 Root     62 :     8.560591900301525   Change is   -0.056051002114472
 Root     63 :     8.595239888257806   Change is   -0.006153602818427
 Root     64 :     8.598270044741843   Change is   -0.030708005633384
 Root     65 :     8.615669294372312   Change is   -0.024104904294174
 Root     66 :     8.624910043098904   Change is   -0.054701115765894
 Root     67 :     8.638935081481872   Change is   -0.033078698766440
 Root     68 :     8.643309001219418   Change is   -0.052137524888993
 Root     69 :     8.648516988149604   Change is   -0.051029077996008
 Root     70 :     8.664079890373358   Change is   -0.070454410678870
 Root     71 :     8.688739535027764   Change is   -0.087116470705310
 Root     72 :     8.710758448347901   Change is   -0.034805069484873
 Root     73 :     8.739019486287065   Change is   -0.051957441749462
 Root     74 :     8.748060510410131   Change is   -0.014070605730184
 Root     75 :     8.764096398764345   Change is   -0.070076793948101
 Root     76 :     8.791409941752020   Change is   -0.055780016467471
 Root     77 :     8.819592586858219   Change is   -0.050420686695009
 Root     78 :     8.824183424356567   Change is   -0.068733331784265
 Root     79 :     8.837043477105496   Change is   -0.063767586767449
 Root     80 :     8.861373075459227   Change is   -0.025407176287210
 Iteration     3 Dimension   640 NMult   480 NNew    160
 CISAX will form   160 AO SS matrices at one time.
 NMat=   160 NSing=   160 JSym2X= 0.
 Root      1 not converged, maximum delta is    0.001578280362654
 Root      2 not converged, maximum delta is    0.001798549402226
 Root      3 not converged, maximum delta is    0.009941925625449
 Root      4 not converged, maximum delta is    0.014496275285568
 Root      5 not converged, maximum delta is    0.009733676745798
 Root      6 not converged, maximum delta is    0.002602483557709
[...]
    24  H   -0.000265   0.008860  -0.056119   0.426987  -0.044865   0.009299
    25  H   -0.000197   0.009291  -0.001641   0.008277  -0.053376   0.430369
    26  H   -0.006675  -0.059296   0.011014  -0.002178   0.012082  -0.052788
    27  H    0.000000   0.000011  -0.000041  -0.000289   0.000603  -0.000431
    28  H    0.000000   0.000000  -0.000003  -0.000026   0.000040   0.000002
    29  H   -0.000000  -0.000000  -0.000004  -0.000057   0.000082   0.000006
    30  H   -0.000000  -0.000000  -0.000001   0.000010   0.000003  -0.000000
    31  H   -0.000000   0.000005  -0.000021  -0.000238  -0.000018   0.000012
    32  H   -0.000010  -0.000104   0.000398  -0.000449  -0.000280  -0.000097
    33  H    0.000000  -0.000001  -0.000004  -0.000029   0.000017   0.000004
    34  H   -0.000001  -0.000005  -0.000061   0.000089   0.000009   0.000001
    35  H    0.000002  -0.000005   0.000007   0.000043  -0.000005   0.000002
    36  H    0.000000  -0.000001   0.000015  -0.000002   0.000001  -0.000000
               7          8          9         10         11         12
     1  C   -0.069876  -0.000008   0.000001  -0.000003  -0.000004   0.000000
     2  C    0.431097  -0.000643   0.000491  -0.000111  -0.000133   0.000004
     3  C   -0.032853   0.003028  -0.001336  -0.000423   0.002559   0.000098
     4  C   -0.049312  -0.024384   0.010977   0.006599   0.019780  -0.005446
     5  C    0.020223   0.307151  -0.075683  -0.102265  -0.095197   0.009076
     6  C    0.392616  -0.023062   0.009988   0.020905   0.006317  -0.000144
     7  C    5.069924   0.005614  -0.000468   0.002957  -0.000423   0.000008
     8  S    0.005614  13.418868   0.302729   0.629717   0.553830  -0.004712
     9  N   -0.000468   0.302729   6.712742  -0.050834  -0.052887   0.331499
    10  O    0.002957   0.629717  -0.050834   7.965226  -0.044682  -0.001313
    11  O   -0.000423   0.553830  -0.052887  -0.044682   8.075499  -0.006252
    12  C    0.000008  -0.004712   0.331499  -0.001313  -0.006252   4.370123
    13  N   -0.000126   0.006369  -0.101341  -0.000548  -0.014826   0.371281
    14  C    0.000005   0.001008   0.000429  -0.000003   0.002783  -0.048233
    15  C    0.000003   0.000018  -0.000280   0.000002  -0.000002   0.004268
    16  O   -0.000023   0.000313  -0.100257  -0.000196  -0.000209   0.701492
    17  H   -0.000093  -0.014879   0.336102   0.001558   0.002907  -0.022140
    18  C    0.000018  -0.000116   0.000013  -0.000001  -0.000025   0.003087
    19  C   -0.000004   0.000002   0.000004   0.000000   0.000002   0.000323
    20  H    0.006383  -0.000000   0.000000  -0.000000   0.000000  -0.000000
    21  H   -0.002482   0.000002  -0.000001   0.000000   0.000000  -0.000000
    22  H   -0.005293  -0.000001   0.000000   0.000000   0.000000  -0.000000
    23  H    0.011777  -0.000101   0.000010   0.000006  -0.000031   0.000006
    24  H   -0.002153  -0.004041   0.000775   0.000425   0.014454  -0.000532
    25  H   -0.050483  -0.001008   0.000013   0.013255   0.000601  -0.000097
    26  H    0.436743  -0.000156   0.000016  -0.000031   0.000005  -0.000003
    27  H    0.000038  -0.004182  -0.002156   0.000209   0.017970  -0.022029
    28  H   -0.000000   0.000029   0.000187  -0.000000   0.000010   0.004485
    29  H    0.000000  -0.000086   0.001888   0.000002  -0.000054  -0.010025
    30  H    0.000000   0.000002   0.000016   0.000000   0.000002  -0.000430
    31  H   -0.000003   0.000045  -0.000070  -0.000000  -0.000005  -0.000962
    32  H    0.000082  -0.000076   0.000092   0.000001  -0.000058  -0.003720
    33  H   -0.000001   0.000002  -0.000000   0.000000   0.000000   0.000480
    34  H   -0.000000  -0.000000  -0.000000  -0.000000  -0.000001   0.000005
    35  H   -0.000002   0.000000  -0.000000   0.000000  -0.000000   0.000009
    36  H    0.000000  -0.000000  -0.000000  -0.000000  -0.000000  -0.000035
              13         14         15         16         17         18
     1  C   -0.000001   0.000000   0.000001   0.000000   0.000001  -0.000009
     2  C    0.000032   0.000001   0.000015  -0.000002   0.000042  -0.000103
     3  C   -0.000640   0.000053  -0.000012   0.000027  -0.000010   0.000509
     4  C    0.003378  -0.000504   0.000019  -0.000182   0.000380   0.000163
     5  C   -0.002594   0.000026  -0.000293  -0.000293   0.001331   0.000393
     6  C    0.000571  -0.000072  -0.000017  -0.000007  -0.000495  -0.000052
     7  C   -0.000126   0.000005   0.000003  -0.000023  -0.000093   0.000018
     8  S    0.006369   0.001008   0.000018   0.000313  -0.014879  -0.000116
     9  N   -0.101341   0.000429  -0.000280  -0.100257   0.336102   0.000013
    10  O   -0.000548  -0.000003   0.000002  -0.000196   0.001558  -0.000001
    11  O   -0.014826   0.002783  -0.000002  -0.000209   0.002907  -0.000025
    12  C    0.371281  -0.048233   0.004268   0.701492  -0.022140   0.003087
    13  N    6.689124   0.241802  -0.072077  -0.109616   0.008172   0.006306
    14  C    0.241802   4.904111   0.311874  -0.019154  -0.000134  -0.056498
    15  C   -0.072077   0.311874   5.062703  -0.000915   0.000050   0.295505
    16  O   -0.109616  -0.019154  -0.000915   7.866275   0.008757   0.002509
    17  H    0.008172  -0.000134   0.000050   0.008757   0.434129  -0.000027
    18  C    0.006306  -0.056498   0.295505   0.002509  -0.000027   4.999536
    19  C   -0.001820   0.012764  -0.046614   0.000139   0.000000   0.288210
    20  H   -0.000000   0.000000   0.000000  -0.000000  -0.000000  -0.000000
    21  H    0.000000  -0.000000  -0.000000   0.000000  -0.000000   0.000000
    22  H    0.000000  -0.000000   0.000000  -0.000000  -0.000000   0.000000
    23  H   -0.000028   0.000002   0.000001   0.000000   0.000000  -0.000024
    24  H    0.005030  -0.000436  -0.000093  -0.000051  -0.000090  -0.000351
    25  H    0.000015  -0.000002  -0.000000   0.000006   0.000430  -0.000000
    26  H   -0.000000   0.000000  -0.000000  -0.000000  -0.000011   0.000000
    27  H    0.351417  -0.023341  -0.000021   0.003875  -0.000382  -0.000811
    28  H   -0.036751   0.425169  -0.067597   0.000902   0.000018   0.011588
    29  H   -0.037791   0.416816  -0.035951   0.022864  -0.000143  -0.005198
    30  H    0.008172  -0.043071   0.398887   0.000020  -0.000001  -0.029647
    31  H    0.000011  -0.032689   0.398905  -0.000052  -0.000001  -0.045473
    32  H    0.007406  -0.009077  -0.043225  -0.001051  -0.000008   0.420276
    33  H   -0.000298  -0.000617  -0.043420   0.000479  -0.000001   0.412217
    34  H    0.000095  -0.000258  -0.006609  -0.000003   0.000000  -0.038760
    35  H    0.000100  -0.000869   0.011965  -0.000003  -0.000000  -0.048707
    36  H   -0.000015  -0.000020  -0.007238  -0.000000  -0.000000  -0.039074
              19         20         21         22         23         24
     1  C    0.000001   0.427570   0.387367   0.423715  -0.007527  -0.000265
     2  C   -0.000001  -0.058308  -0.024190  -0.054688  -0.055148   0.008860
     3  C   -0.000311  -0.005427  -0.003709   0.005810   0.432748  -0.056119
     4  C    0.000305   0.001946  -0.001080  -0.000694  -0.050867   0.426987
     5  C   -0.000024  -0.000007   0.000357   0.000048   0.010162  -0.044865
     6  C    0.000000  -0.000509  -0.001210   0.001790  -0.002642   0.009299
     7  C   -0.000004   0.006383  -0.002482  -0.005293   0.011777  -0.002153
     8  S    0.000002  -0.000000   0.000002  -0.000001  -0.000101  -0.004041
     9  N    0.000004   0.000000  -0.000001   0.000000   0.000010   0.000775
    10  O    0.000000  -0.000000   0.000000   0.000000   0.000006   0.000425
    11  O    0.000002   0.000000   0.000000   0.000000  -0.000031   0.014454
    12  C    0.000323  -0.000000  -0.000000  -0.000000   0.000006  -0.000532
    13  N   -0.001820  -0.000000   0.000000   0.000000  -0.000028   0.005030
    14  C    0.012764   0.000000  -0.000000  -0.000000   0.000002  -0.000436
    15  C   -0.046614   0.000000  -0.000000   0.000000   0.000001  -0.000093
    16  O    0.000139  -0.000000   0.000000  -0.000000   0.000000  -0.000051
    17  H    0.000000  -0.000000  -0.000000  -0.000000   0.000000  -0.000090
    18  C    0.288210  -0.000000   0.000000   0.000000  -0.000024  -0.000351
    19  C    4.936328  -0.000000   0.000001  -0.000000   0.000091  -0.000077
    20  H   -0.000000   0.555887  -0.026692  -0.025189   0.002218  -0.000030
    21  H    0.000001  -0.026692   0.567141  -0.028385   0.000478   0.000012
    22  H   -0.000000  -0.025189  -0.028385   0.557242   0.000013   0.000009
    23  H    0.000091   0.002218   0.000478   0.000013   0.550474  -0.006753
    24  H   -0.000077  -0.000030   0.000012   0.000009  -0.006753   0.513881
    25  H   -0.000000   0.000011   0.000004  -0.000025   0.000060  -0.000186
    26  H   -0.000000  -0.000002   0.000599   0.001748  -0.000222   0.000071
    27  H    0.000046   0.000000  -0.000000  -0.000000  -0.000005  -0.000350
    28  H   -0.000762  -0.000000   0.000000   0.000000  -0.000000   0.000052
    29  H   -0.000017  -0.000000  -0.000000  -0.000000  -0.000000   0.000013
    30  H   -0.005410  -0.000000   0.000000   0.000000  -0.000000   0.000012
    31  H   -0.006134  -0.000000   0.000000   0.000000  -0.000005   0.000853
    32  H   -0.040963   0.000001   0.000001  -0.000000  -0.000016  -0.000276
    33  H   -0.041518  -0.000000   0.000000   0.000000   0.000003   0.000027
    34  H    0.404051  -0.000000  -0.000000   0.000000   0.000174   0.000033
    35  H    0.417382  -0.000000   0.000001   0.000000  -0.000000   0.000008
    36  H    0.407515   0.000000  -0.000000   0.000000  -0.000001  -0.000003
              25         26         27         28         29         30
     1  C   -0.000197  -0.006675   0.000000   0.000000  -0.000000  -0.000000
     2  C    0.009291  -0.059296   0.000011   0.000000  -0.000000  -0.000000
     3  C   -0.001641   0.011014  -0.000041  -0.000003  -0.000004  -0.000001
     4  C    0.008277  -0.002178  -0.000289  -0.000026  -0.000057   0.000010
     5  C   -0.053376   0.012082   0.000603   0.000040   0.000082   0.000003
     6  C    0.430369  -0.052788  -0.000431   0.000002   0.000006  -0.000000
     7  C   -0.050483   0.436743   0.000038  -0.000000   0.000000   0.000000
     8  S   -0.001008  -0.000156  -0.004182   0.000029  -0.000086   0.000002
     9  N    0.000013   0.000016  -0.002156   0.000187   0.001888   0.000016
    10  O    0.013255  -0.000031   0.000209  -0.000000   0.000002   0.000000
    11  O    0.000601   0.000005   0.017970   0.000010  -0.000054   0.000002
    12  C   -0.000097  -0.000003  -0.022029   0.004485  -0.010025  -0.000430
    13  N    0.000015  -0.000000   0.351417  -0.036751  -0.037791   0.008172
    14  C   -0.000002   0.000000  -0.023341   0.425169   0.416816  -0.043071
    15  C   -0.000000  -0.000000  -0.000021  -0.067597  -0.035951   0.398887
    16  O    0.000006  -0.000000   0.003875   0.000902   0.022864   0.000020
    17  H    0.000430  -0.000011  -0.000382   0.000018  -0.000143  -0.000001
    18  C   -0.000000   0.000000  -0.000811   0.011588  -0.005198  -0.029647
    19  C   -0.000000  -0.000000   0.000046  -0.000762  -0.000017  -0.005410
    20  H    0.000011  -0.000002   0.000000  -0.000000  -0.000000  -0.000000
    21  H    0.000004   0.000599  -0.000000   0.000000  -0.000000   0.000000
    22  H   -0.000025   0.001748  -0.000000   0.000000  -0.000000   0.000000
    23  H    0.000060  -0.000222  -0.000005  -0.000000  -0.000000  -0.000000
    24  H   -0.000186   0.000071  -0.000350   0.000052   0.000013   0.000012
    25  H    0.508455  -0.006921  -0.000018   0.000000   0.000000  -0.000000
    26  H   -0.006921   0.550535  -0.000000  -0.000000  -0.000000   0.000000
    27  H   -0.000018  -0.000000   0.432650  -0.006428   0.005308   0.000002
    28  H    0.000000  -0.000000  -0.006428   0.579156  -0.021838  -0.001993
    29  H    0.000000  -0.000000   0.005308  -0.021838   0.518780  -0.001103
    30  H   -0.000000   0.000000   0.000002  -0.001993  -0.001103   0.609741
    31  H    0.000000   0.000000   0.002109  -0.002573   0.005976  -0.030711
    32  H   -0.000002   0.000000   0.000489  -0.000286   0.000797   0.008163
    33  H    0.000000  -0.000000   0.000019   0.000094   0.003291  -0.006551
    34  H    0.000000  -0.000000  -0.000012   0.000026  -0.000013  -0.000062
    35  H    0.000000  -0.000000   0.000000   0.000019   0.000021  -0.000060
    36  H   -0.000000   0.000000   0.000004  -0.000019   0.000040   0.004763
              31         32         33         34         35         36
     1  C   -0.000000  -0.000010   0.000000  -0.000001   0.000002   0.000000
     2  C    0.000005  -0.000104  -0.000001  -0.000005  -0.000005  -0.000001
     3  C   -0.000021   0.000398  -0.000004  -0.000061   0.000007   0.000015
     4  C   -0.000238  -0.000449  -0.000029   0.000089   0.000043  -0.000002
     5  C   -0.000018  -0.000280   0.000017   0.000009  -0.000005   0.000001
     6  C    0.000012  -0.000097   0.000004   0.000001   0.000002  -0.000000
     7  C   -0.000003   0.000082  -0.000001  -0.000000  -0.000002   0.000000
     8  S    0.000045  -0.000076   0.000002  -0.000000   0.000000  -0.000000
     9  N   -0.000070   0.000092  -0.000000  -0.000000  -0.000000  -0.000000
    10  O   -0.000000   0.000001   0.000000  -0.000000   0.000000  -0.000000
    11  O   -0.000005  -0.000058   0.000000  -0.000001  -0.000000  -0.000000
    12  C   -0.000962  -0.003720   0.000480   0.000005   0.000009  -0.000035
    13  N    0.000011   0.007406  -0.000298   0.000095   0.000100  -0.000015
    14  C   -0.032689  -0.009077  -0.000617  -0.000258  -0.000869  -0.000020
    15  C    0.398905  -0.043225  -0.043420  -0.006609   0.011965  -0.007238
    16  O   -0.000052  -0.001051   0.000479  -0.000003  -0.000003  -0.000000
    17  H   -0.000001  -0.000008  -0.000001   0.000000  -0.000000  -0.000000
    18  C   -0.045473   0.420276   0.412217  -0.038760  -0.048707  -0.039074
    19  C   -0.006134  -0.040963  -0.041518   0.404051   0.417382   0.407515
    20  H   -0.000000   0.000001  -0.000000  -0.000000  -0.000000   0.000000
    21  H    0.000000   0.000001   0.000000  -0.000000   0.000001  -0.000000
    22  H    0.000000  -0.000000   0.000000   0.000000   0.000000   0.000000
    23  H   -0.000005  -0.000016   0.000003   0.000174  -0.000000  -0.000001
    24  H    0.000853  -0.000276   0.000027   0.000033   0.000008  -0.000003
    25  H    0.000000  -0.000002   0.000000   0.000000   0.000000  -0.000000
    26  H    0.000000   0.000000  -0.000000  -0.000000  -0.000000   0.000000
    27  H    0.002109   0.000489   0.000019  -0.000012   0.000000   0.000004
    28  H   -0.002573  -0.000286   0.000094   0.000026   0.000019  -0.000019
    29  H    0.005976   0.000797   0.003291  -0.000013   0.000021   0.000040
    30  H   -0.030711   0.008163  -0.006551  -0.000062  -0.000060   0.004763
    31  H    0.625151  -0.004219   0.008892   0.005132  -0.000138   0.000100
    32  H   -0.004219   0.596456  -0.030867  -0.006663  -0.004381   0.008675
    33  H    0.008892  -0.030867   0.606049   0.008333  -0.004710  -0.005625
    34  H    0.005132  -0.006663   0.008333   0.597515  -0.027572  -0.031548
    35  H   -0.000138  -0.004381  -0.004710  -0.027572   0.570001  -0.026226
    36  H    0.000100   0.008675  -0.005625  -0.031548  -0.026226   0.585768
 Mulliken charges:
               1
     1  C   -0.357630
     2  C    0.162916
     3  C   -0.155391
     4  C   -0.143673
     5  C    0.011678
     6  C   -0.155311
     7  C   -0.163894
     8  S    0.848729
     9  N   -0.322660
    10  O   -0.440453
    11  O   -0.481929
    12  C    0.329828
    13  N   -0.320809
    14  C   -0.081862
    15  C   -0.159850
    16  O   -0.375639
    17  H    0.244539
    18  C   -0.175457
    19  C   -0.323511
    20  H    0.122149
    21  H    0.131787
    22  H    0.123901
    23  H    0.115147
    24  H    0.135871
    25  H    0.143170
    26  H    0.115471
    27  H    0.245744
    28  H    0.116499
    29  H    0.136396
    30  H    0.089247
    31  H    0.076123
    32  H    0.102987
    33  H    0.093735
    34  H    0.096107
    35  H    0.113120
    36  H    0.102925
 Sum of Mulliken charges =  -0.00000
 Mulliken charges with hydrogens summed into heavy atoms:
               1
     1  C    0.020206
     2  C    0.162916
     3  C   -0.040244
     4  C   -0.007803
     5  C    0.011678
     6  C   -0.012141
     7  C   -0.048422
     8  S    0.848729
     9  N   -0.078120
    10  O   -0.440453
    11  O   -0.481929
    12  C    0.329828
    13  N   -0.075065
    14  C    0.171033
    15  C    0.005519
    16  O   -0.375639
    18  C    0.021265
    19  C   -0.011359
 Electronic spatial extent (au):  <R**2>=           5702.9889
 Charge=             -0.0000 electrons
 Dipole moment (field-independent basis, Debye):
    X=             -1.6155    Y=              4.6853    Z=             -0.3822  Tot=              4.9707
 Quadrupole moment (field-independent basis, Debye-Ang):
   XX=           -104.3282   YY=           -120.8977   ZZ=           -121.9418
   XY=             -5.7650   XZ=            -11.6957   YZ=             -4.0640
 Traceless Quadrupole moment (field-independent basis, Debye-Ang):
   XX=             11.3943   YY=             -5.1751   ZZ=             -6.2192
   XY=             -5.7650   XZ=            -11.6957   YZ=             -4.0640
 Octapole moment (field-independent basis, Debye-Ang**2):
  XXX=             -3.3029  YYY=             12.8289  ZZZ=             -8.9279  XYY=             -0.6948
  XXY=             22.4821  XXZ=             -0.2821  XZZ=            -16.8136  YZZ=             -0.5026
  YYZ=             13.2800  XYZ=             13.7600
 Hexadecapole moment (field-independent basis, Debye-Ang**3):
 XXXX=          -4009.5234 YYYY=          -2923.0277 ZZZZ=           -681.3086 XXXY=            -49.1206
 XXXZ=           -103.3259 YYYX=           -113.0570 YYYZ=            -28.3524 ZZZX=            -36.8510
 ZZZY=              0.3421 XXYY=          -1158.8904 XXZZ=           -839.5311 YYZZ=           -566.9297
 XXYZ=             33.6632 YYXZ=             -7.1680 ZZXY=             21.4638
 N-N= 1.537090515857D+03 E-N=-5.893280830255D+03  KE= 1.197180647967D+03
 Leave Link  601 at Wed Sep 27 17:15:55 2017, MaxMem=  1879048192 cpu:         3.7
 (Enter /net/software/local/gaussian09/E.01/g09/l9999.exe)
 1\1\GINC-P1935\SP\RB3LYP TD-FC\def2TZVP\C12H18N2O3S1\PLGJAWICZUK\27-Se
 p-2017\0\\#P td=(singlets,nstates=80) B3LYP/Def2TZVP\\conflex\\0,1\C,0
 ,-3.945874,2.981194,0.374665\C,0,-3.132915,1.73741,0.140477\C,0,-2.069
 855,1.733839,-0.763683\C,0,-1.297948,0.597439,-0.963836\C,0,-1.590804,
 -0.559604,-0.250556\C,0,-2.656282,-0.586535,0.645857\C,0,-3.414868,0.5
 57808,0.835099\S,0,-0.610913,-2.022636,-0.481251\N,0,0.510261,-2.03603
 6,0.745763\O,0,-1.445025,-3.161141,-0.228827\O,0,0.119204,-1.874674,-1
 .714644\C,0,1.715613,-1.299601,0.932795\N,0,2.268237,-0.78308,-0.18470
 6\C,0,3.55067,-0.090832,-0.172576\C,0,3.455516,1.372079,-0.609642\O,0,
 2.161156,-1.210328,2.059787\H,0,0.160369,-2.412511,1.616594\C,0,2.6837
 89,2.268149,0.35823\C,0,2.594688,3.717816,-0.114948\H,0,-3.929005,3.63
 8495,-0.494958\H,0,-3.548755,3.547612,1.221974\H,0,-4.984827,2.740572,
 0.602896\H,0,-1.84559,2.631041,-1.327932\H,0,-0.489691,0.600356,-1.680
 919\H,0,-2.900136,-1.500442,1.170171\H,0,-4.248072,0.531628,1.527032\H
 ,0,1.86108,-1.05106,-1.069419\H,0,4.239617,-0.627946,-0.830386\H,0,3.9
 41338,-0.162586,0.84159\H,0,4.476669,1.751533,-0.723812\H,0,3.000605,1
 .422904,-1.605721\H,0,1.676407,1.867468,0.500515\H,0,3.165225,2.230844
 ,1.340244\H,0,2.08548,3.789615,-1.079696\H,0,2.043518,4.334553,0.59750
 3\H,0,3.58784,4.158076,-0.234877\\Version=ES64L-G09RevE.01\State=1-A\H
 F=-1201.8534465\RMSD=3.295e-09\PG=C01 [X(C12H18N2O3S1)]\\@


 ALL THINGS ARE POSSIBLE EXCEPT SKIING THROUGH A REVOLVING DOOR.
 Job cpu time:       0 days 21 hours  0 minutes 29.3 seconds.
 File lengths (MBytes):  RWF=   5542 Int=      0 D2E=      0 Chk=   1011 Scr=      1
 Normal termination of Gaussian 09 at Wed Sep 27 17:16:00 2017.
