 Entering Gaussian System, Link 0=g09.bin
 Initial command:
 /net/software/local/gaussian09/E.01/g09/l1.exe "/net/scratch/people/plgjawiczuk/slurm_jobdir/7318516/Gau-12085.inp" -scrdir="/net/scratch/people/plgjawiczuk/slurm_jobdir/7318516/"
 Entering Link 1 = /net/software/local/gaussian09/E.01/g09/l1.exe PID=     12086.
  
 Copyright (c) 1988,1990,1992,1993,1995,1998,2003,2009,2015,
            Gaussian, Inc.  All Rights Reserved.
  
 This is part of the Gaussian(R) 09 program.  It is based on
 the Gaussian(R) 03 system (copyright 2003, Gaussian, Inc.),
 the Gaussian(R) 98 system (copyright 1998, Gaussian, Inc.),
 the Gaussian(R) 94 system (copyright 1995, Gaussian, Inc.),
 the Gaussian 92(TM) system (copyright 1992, Gaussian, Inc.),
 the Gaussian 90(TM) system (copyright 1990, Gaussian, Inc.),
 the Gaussian 88(TM) system (copyright 1988, Gaussian, Inc.),
 the Gaussian 86(TM) system (copyright 1986, Carnegie Mellon
 University), and the Gaussian 82(TM) system (copyright 1983,
 Carnegie Mellon University). Gaussian is a federally registered
 trademark of Gaussian, Inc.
  
 This software contains proprietary and confidential information,
 including trade secrets, belonging to Gaussian, Inc.
  
 This software is provided under written license and may be
 used, copied, transmitted, or stored only in accord with that
 written license.
  
 The following legend is applicable only to US Government
 contracts under FAR:
  
                    RESTRICTED RIGHTS LEGEND
  
 Use, reproduction and disclosure by the US Government is
 subject to restrictions as set forth in subparagraphs (a)
 and (c) of the Commercial Computer Software - Restricted
 Rights clause in FAR 52.227-19.
  
 Gaussian, Inc.
 340 Quinnipiac St., Bldg. 40, Wallingford CT 06492
  
  
 ---------------------------------------------------------------
 Warning -- This program may not be used in any manner that
 competes with the business of Gaussian, Inc. or will provide
 assistance to any competitor of Gaussian, Inc.  The licensee
 of this program is prohibited from giving any competitor of
 Gaussian, Inc. access to this program.  By using this program,
 the user acknowledges that Gaussian, Inc. is engaged in the
 business of creating and licensing software in the field of
 computational chemistry and represents and warrants to the
 licensee that it is not a competitor of Gaussian, Inc. and that
 it will not use this program in any manner prohibited above.
 ---------------------------------------------------------------
  

 Cite this work as:
 Gaussian 09, Revision E.01,
 M. J. Frisch, G. W. Trucks, H. B. Schlegel, G. E. Scuseria, 
 M. A. Robb, J. R. Cheeseman, G. Scalmani, V. Barone, B. Mennucci, 
 G. A. Petersson, H. Nakatsuji, M. Caricato, X. Li, H. P. Hratchian, 
 A. F. Izmaylov, J. Bloino, G. Zheng, J. L. Sonnenberg, M. Hada, 
 M. Ehara, K. Toyota, R. Fukuda, J. Hasegawa, M. Ishida, T. Nakajima, 
 Y. Honda, O. Kitao, H. Nakai, T. Vreven, J. A. Montgomery, Jr., 
 J. E. Peralta, F. Ogliaro, M. Bearpark, J. J. Heyd, E. Brothers, 
 K. N. Kudin, V. N. Staroverov, T. Keith, R. Kobayashi, J. Normand, 
 K. Raghavachari, A. Rendell, J. C. Burant, S. S. Iyengar, J. Tomasi, 
 M. Cossi, N. Rega, J. M. Millam, M. Klene, J. E. Knox, J. B. Cross, 
 V. Bakken, C. Adamo, J. Jaramillo, R. Gomperts, R. E. Stratmann, 
 O. Yazyev, A. J. Austin, R. Cammi, C. Pomelli, J. W. Ochterski, 
 R. L. Martin, K. Morokuma, V. G. Zakrzewski, G. A. Voth, 
 P. Salvador, J. J. Dannenberg, S. Dapprich, A. D. Daniels, 
 O. Farkas, J. B. Foresman, J. V. Ortiz, J. Cioslowski, 
 and D. J. Fox, Gaussian, Inc., Wallingford CT, 2013.
 
 ******************************************
 Gaussian 09:  ES64L-G09RevE.01 30-Nov-2015
                27-Sep-2017 
 ******************************************
 %mem=14336MB
 %rwf=.//11267.rwf,500GB
 %NProcShared=8
 Will use up to    8 processors via shared memory.
 %chk=Tolbutamid_c3.chk
 ------------------------------------------
 #P td=(singlets,nstates=80) B3LYP/Def2TZVP
 ------------------------------------------
 1/38=1/1;
 2/12=2,17=6,18=5,40=1/2;
 3/5=44,7=101,11=9,16=1,25=1,30=1,74=-5/1,2,8,3;
 4//1;
 5/5=2,38=5/2;
 8/6=1,10=1,108=80/1;
 9/41=80,42=1,48=1,70=2/14;
 6/7=2,8=2,9=2,10=2/1;
 99/5=1,9=1/99;
 Leave Link    1 at Wed Sep 27 14:31:11 2017, MaxMem=  1879048192 cpu:         0.6
 (Enter /net/software/local/gaussian09/E.01/g09/l101.exe)
 -------
 conflex
 -------
 Symbolic Z-matrix:
 Charge =  0 Multiplicity = 1
 C                     4.04153   2.97642   0.5656 
 C                     3.19121   1.76972   0.27557 
 C                     2.08922   1.85046  -0.57507 
 C                     1.31276   0.73347  -0.8572 
 C                     1.6395   -0.48685  -0.2787 
 C                     2.74223  -0.59611   0.56636 
 C                     3.50408   0.5281    0.83823 
 S                     0.6517   -1.92531  -0.60841 
 N                    -0.4122   -2.06465   0.66 
 O                    -0.13412  -1.66248  -1.78709 
 O                     1.50059  -3.07629  -0.50712 
 C                    -1.63988  -1.40398   0.94989 
 N                    -2.26362  -0.81809  -0.09249 
 C                    -3.57975  -0.2075    0.06496 
 C                    -3.53973   1.27932   0.42249 
 O                    -2.05158  -1.43614   2.09313 
 H                    -0.02041  -2.50846   1.47973 
 C                    -2.9624    2.17596  -0.67191 
 C                    -2.92804   3.6518   -0.27934 
 H                     3.56392   3.89324   0.22102 
 H                     5.01112   2.89775   0.06648 
 H                     4.23653   3.07449   1.63516 
 H                     1.83405   2.79992  -1.02971 
 H                     0.47201   0.80399  -1.53237 
 H                     3.00741  -1.55525   0.98984 
 H                     4.362     0.43981   1.49419 
 H                    -1.88264  -0.97137  -1.01395 
 H                    -4.11056  -0.75622   0.84264 
 H                    -4.11812  -0.35435  -0.87427 
 H                    -4.56399   1.59548   0.64793 
 H                    -2.96865   1.39999   1.3475 
 H                    -1.94896   1.84316  -0.91555 
 H                    -3.55328   2.05525  -1.58681 
 H                    -2.31509   3.80745   0.61176 
 H                    -2.51448   4.2681   -1.08013 
 H                    -3.93081   4.02556  -0.05814 
 
 NAtoms=     36 NQM=       36 NQMF=       0 NMMI=      0 NMMIF=      0
                NMic=       0 NMicF=      0.
                    Isotopes and Nuclear Properties:
 (Nuclear quadrupole moments (NQMom) in fm**2, nuclear magnetic moments (NMagM)
  in nuclear magnetons)

  Atom         1           2           3           4           5           6           7           8           9          10
 IAtWgt=          12          12          12          12          12          12          12          32          14          16
 AtmWgt=  12.0000000  12.0000000  12.0000000  12.0000000  12.0000000  12.0000000  12.0000000  31.9720718  14.0030740  15.9949146
 NucSpn=           0           0           0           0           0           0           0           0           2           0
 AtZEff=   0.0000000   0.0000000   0.0000000   0.0000000   0.0000000   0.0000000   0.0000000   0.0000000   0.0000000   0.0000000
 NQMom=    0.0000000   0.0000000   0.0000000   0.0000000   0.0000000   0.0000000   0.0000000   0.0000000   2.0440000   0.0000000
 NMagM=    0.0000000   0.0000000   0.0000000   0.0000000   0.0000000   0.0000000   0.0000000   0.0000000   0.4037610   0.0000000
 AtZNuc=   6.0000000   6.0000000   6.0000000   6.0000000   6.0000000   6.0000000   6.0000000  16.0000000   7.0000000   8.0000000

  Atom        11          12          13          14          15          16          17          18          19          20
 IAtWgt=          16          12          14          12          12          16           1          12          12           1
 AtmWgt=  15.9949146  12.0000000  14.0030740  12.0000000  12.0000000  15.9949146   1.0078250  12.0000000  12.0000000   1.0078250
 NucSpn=           0           0           2           0           0           0           1           0           0           1
 AtZEff=   0.0000000   0.0000000   0.0000000   0.0000000   0.0000000   0.0000000   0.0000000   0.0000000   0.0000000   0.0000000
 NQMom=    0.0000000   0.0000000   2.0440000   0.0000000   0.0000000   0.0000000   0.0000000   0.0000000   0.0000000   0.0000000
 NMagM=    0.0000000   0.0000000   0.4037610   0.0000000   0.0000000   0.0000000   2.7928460   0.0000000   0.0000000   2.7928460
 AtZNuc=   8.0000000   6.0000000   7.0000000   6.0000000   6.0000000   8.0000000   1.0000000   6.0000000   6.0000000   1.0000000

  Atom        21          22          23          24          25          26          27          28          29          30
 IAtWgt=           1           1           1           1           1           1           1           1           1           1
 AtmWgt=   1.0078250   1.0078250   1.0078250   1.0078250   1.0078250   1.0078250   1.0078250   1.0078250   1.0078250   1.0078250
 NucSpn=           1           1           1           1           1           1           1           1           1           1
 AtZEff=   0.0000000   0.0000000   0.0000000   0.0000000   0.0000000   0.0000000   0.0000000   0.0000000   0.0000000   0.0000000
 NQMom=    0.0000000   0.0000000   0.0000000   0.0000000   0.0000000   0.0000000   0.0000000   0.0000000   0.0000000   0.0000000
 NMagM=    2.7928460   2.7928460   2.7928460   2.7928460   2.7928460   2.7928460   2.7928460   2.7928460   2.7928460   2.7928460
 AtZNuc=   1.0000000   1.0000000   1.0000000   1.0000000   1.0000000   1.0000000   1.0000000   1.0000000   1.0000000   1.0000000

  Atom        31          32          33          34          35          36
 IAtWgt=           1           1           1           1           1           1
 AtmWgt=   1.0078250   1.0078250   1.0078250   1.0078250   1.0078250   1.0078250
 NucSpn=           1           1           1           1           1           1
 AtZEff=   0.0000000   0.0000000   0.0000000   0.0000000   0.0000000   0.0000000
 NQMom=    0.0000000   0.0000000   0.0000000   0.0000000   0.0000000   0.0000000
 NMagM=    2.7928460   2.7928460   2.7928460   2.7928460   2.7928460   2.7928460
 AtZNuc=   1.0000000   1.0000000   1.0000000   1.0000000   1.0000000   1.0000000
 Leave Link  101 at Wed Sep 27 14:31:11 2017, MaxMem=  1879048192 cpu:         0.5
 (Enter /net/software/local/gaussian09/E.01/g09/l202.exe)
                          Input orientation:                          
 ---------------------------------------------------------------------
 Center     Atomic      Atomic             Coordinates (Angstroms)
 Number     Number       Type             X           Y           Z
 ---------------------------------------------------------------------
      1          6           0        4.041534    2.976423    0.565596
      2          6           0        3.191209    1.769721    0.275567
      3          6           0        2.089224    1.850461   -0.575069
      4          6           0        1.312761    0.733468   -0.857203
      5          6           0        1.639500   -0.486846   -0.278701
      6          6           0        2.742226   -0.596109    0.566361
      7          6           0        3.504083    0.528104    0.838232
      8         16           0        0.651699   -1.925307   -0.608414
      9          7           0       -0.412197   -2.064651    0.660001
     10          8           0       -0.134122   -1.662484   -1.787087
     11          8           0        1.500586   -3.076293   -0.507116
     12          6           0       -1.639875   -1.403981    0.949894
     13          7           0       -2.263624   -0.818090   -0.092486
     14          6           0       -3.579750   -0.207498    0.064955
     15          6           0       -3.539731    1.279315    0.422489
     16          8           0       -2.051584   -1.436138    2.093129
     17          1           0       -0.020413   -2.508456    1.479731
     18          6           0       -2.962401    2.175959   -0.671906
     19          6           0       -2.928036    3.651795   -0.279337
     20          1           0        3.563923    3.893244    0.221017
     21          1           0        5.011122    2.897754    0.066484
     22          1           0        4.236526    3.074488    1.635164
     23          1           0        1.834045    2.799924   -1.029715
     24          1           0        0.472009    0.803988   -1.532370
     25          1           0        3.007413   -1.555249    0.989840
     26          1           0        4.362001    0.439806    1.494189
     27          1           0       -1.882643   -0.971371   -1.013955
     28          1           0       -4.110559   -0.756215    0.842644
     29          1           0       -4.118117   -0.354352   -0.874265
     30          1           0       -4.563994    1.595478    0.647928
     31          1           0       -2.968645    1.399990    1.347499
     32          1           0       -1.948956    1.843158   -0.915547
     33          1           0       -3.553278    2.055252   -1.586806
     34          1           0       -2.315093    3.807445    0.611764
     35          1           0       -2.514481    4.268102   -1.080129
     36          1           0       -3.930805    4.025559   -0.058142
 ---------------------------------------------------------------------
                    Distance matrix (angstroms):
                    1          2          3          4          5
     1  C    0.000000
     2  C    1.504427   0.000000
     3  C    2.525950   1.394443   0.000000
     4  C    3.808071   2.426016   1.389305   0.000000
     5  C    4.298469   2.794120   2.398560   1.389456   0.000000
     6  C    3.801472   2.425551   2.777585   2.416129   1.393583
     7  C    2.521398   1.398605   2.397472   2.778231   2.398819
     8  S    6.074227   4.569876   4.040299   2.750997   1.775847
     9  N    6.727337   5.275863   4.807349   3.620339   2.753196
    10  O    6.670133   5.205036   4.330478   2.949363   2.608273
    11  O    6.651503   5.191787   4.962259   3.830420   2.603211
    12  C    7.184291   5.819491   5.179101   4.068458   3.620067
    13  N    7.388262   6.048755   5.128483   3.972739   3.921578
    14  C    8.274779   7.056886   6.064824   5.066799   5.238006
    15  C    7.770215   6.750381   5.745125   5.047994   5.516831
    16  O    7.676597   6.408427   5.921765   4.972974   4.488968
    17  H    6.886142   5.483368   5.260507   4.212919   3.151873
    18  C    7.157322   6.239363   5.063027   4.515764   5.331288
    19  C    7.053010   6.426140   5.339022   5.180243   6.163662
    20  H    1.089682   2.156674   2.642244   4.026720   4.810230
    21  H    1.093345   2.151339   3.169527   4.383515   4.789833
    22  H    1.091611   2.154903   3.315762   4.498963   4.805260
    23  H    2.729318   2.146386   1.083189   2.138162   3.377089
    24  H    4.675729   3.405191   2.151027   1.080596   2.144988
    25  H    4.667488   3.405788   3.858869   3.394354   2.149853
    26  H    2.720186   2.150457   3.381906   3.861754   3.378437
    27  H    7.292183   5.909351   4.891941   3.625142   3.630545
    28  H    8.970282   7.747112   6.873280   5.875460   5.864568
    29  H    8.930127   7.698055   6.594073   5.538780   5.789854
    30  H    8.716014   7.766092   6.769494   6.127375   6.608937
    31  H    7.227664   6.263349   5.429662   4.861625   5.238289
    32  H    6.274077   5.276878   4.052515   3.445811   4.325680
    33  H    7.947488   7.002718   5.736147   5.094877   5.927760
    34  H    6.410884   5.880877   4.963504   4.976798   5.905309
    35  H    6.881728   6.374537   5.224383   5.214510   6.364540
    36  H    8.065229   7.478185   6.421761   6.242703   7.172081
                    6          7          8          9         10
     6  C    0.000000
     7  C    1.384989   0.000000
     8  S    2.741745   4.030894   0.000000
     9  N    3.480771   4.700148   1.661375   0.000000
    10  O    3.866426   4.992746   1.440785   2.495457   0.000000
    11  O    2.974111   4.337700   1.433750   2.458520   2.511862
    12  C    4.472423   5.495974   2.819826   1.423979   3.134514
    13  N    5.053898   5.995408   3.160889   2.355405   2.849465
    14  C    6.353724   7.163781   4.616216   3.719743   4.173655
    15  C    6.557507   7.095948   5.375914   4.584756   5.013440
    16  O    5.100714   6.024819   3.852968   2.266379   4.334048
    17  H    3.481880   4.696199   2.269834   1.011145   3.376492
    18  C    6.462231   6.841883   5.466821   5.124479   4.896574
    19  C    7.135248   7.237303   6.635274   6.315818   6.190382
    20  H    4.576979   3.421798   6.559309   7.176263   6.969514
    21  H    4.195813   2.912388   6.536205   7.374965   7.120747
    22  H    4.104699   2.766884   6.548479   6.998022   7.297484
    23  H    3.860737   3.382221   4.889094   5.618259   4.935623
    24  H    3.393940   3.858671   2.887046   3.717176   2.552599
    25  H    1.081484   2.147097   2.870670   3.473041   4.194290
    26  H    2.134867   1.083559   4.876581   5.455377   5.949917
    27  H    4.901799   5.890317   2.738128   2.481854   2.032903
    28  H    6.860221   7.722193   5.113849   3.927244   4.852717
    29  H    7.014140   7.861890   5.028889   4.360383   4.291465
    30  H    7.628274   8.140600   6.416991   5.534809   6.013932
    31  H    6.099888   6.551011   5.290566   4.360254   5.219090
    32  H    5.491199   5.877137   4.589016   4.484969   4.042614
    33  H    7.162347   7.617042   5.872302   5.646958   5.054928
    34  H    6.705954   6.683425   6.569257   6.172913   6.358557
    35  H    7.348772   7.341036   6.971766   6.895753   6.429444
    36  H    8.141201   8.265182   7.530933   7.070148   7.053927
                   11         12         13         14         15
    11  O    0.000000
    12  C    3.844737   0.000000
    13  N    4.409158   1.348661   0.000000
    14  C    5.862343   2.444955   1.459383   0.000000
    15  C    6.726090   3.329818   2.508537   1.529721   0.000000
    16  O    4.697797   1.215535   2.281196   2.821053   3.518424
    17  H    2.565821   2.030579   3.218882   4.468208   5.277364
    18  C    6.894314   4.146719   3.128633   2.570010   1.528064
    19  C    8.058024   5.360153   4.522856   3.929047   2.548606
    20  H    7.304929   7.461325   7.500350   8.238477   7.571996
    21  H    6.952850   7.970012   8.170355   9.134860   8.709947
    22  H    7.064477   7.420133   7.771029   8.621552   8.072385
    23  H    5.908827   5.801706   5.546108   6.289043   5.770495
    24  H    4.143151   3.936600   3.491145   4.471163   4.487925
    25  H    2.612466   4.649921   5.431267   6.786941   7.156936
    26  H    4.955388   6.302247   6.928113   8.095253   8.018147
    27  H    4.016693   2.025535   1.008834   2.151214   3.142435
    28  H    6.220093   2.556439   2.071102   1.089793   2.155402
    29  H    6.254085   3.251301   2.065279   1.092492   2.164479
    30  H    7.742009   4.199811   3.415439   2.135256   1.095398
    31  H    6.591717   3.128254   2.736876   2.145317   1.093776
    32  H    6.022222   3.757567   2.803335   2.797510   2.153793
    33  H    7.282858   4.697047   3.486014   2.801616   2.153956
    34  H    7.949663   5.265853   4.679123   4.244776   2.815494
    35  H    8.389830   6.087566   5.187265   4.740993   3.498835
    36  H    8.951977   5.978662   5.122656   4.249372   2.815280
                   16         17         18         19         20
    16  O    0.000000
    17  H    2.377347   0.000000
    18  C    4.639208   5.935367   0.000000
    19  C    5.681886   7.035431   1.527542   0.000000
    20  H    7.964988   7.444030   6.807296   6.515687   0.000000
    21  H    8.530635   7.519356   8.040104   7.982381   1.763311
    22  H    7.752148   7.022461   7.612784   7.438383   1.767079
    23  H    6.541750   6.157535   4.850078   4.895525   2.398365
    24  H    4.952871   4.504167   3.797088   4.608731   4.709331
    25  H    5.179275   3.211904   7.233394   7.997104   5.530540
    26  H    6.709096   5.281857   7.832819   8.161305   3.766182
    27  H    3.146191   3.471167   3.344931   4.796475   7.406397
    28  H    2.503075   4.495055   3.494249   4.699761   8.994530
    29  H    3.774420   5.193519   2.789104   4.221309   8.846211
    30  H    4.194223   6.178859   2.154999   2.786507   8.457246
    31  H    3.072554   4.897500   2.163369   2.778285   7.082353
    32  H    4.451567   5.328525   1.094161   2.152796   5.990531
    33  H    5.290256   6.535458   1.095786   2.156236   7.569742
    34  H    5.455185   6.775657   2.174526   1.092697   5.892612
    35  H    6.543867   7.661266   2.178151   1.091847   6.227399
    36  H    6.163568   7.768499   2.176128   1.092782   7.501092
                   21         22         23         24         25
    21  H    0.000000
    22  H    1.758406   0.000000
    23  H    3.362297   3.598455   0.000000
    24  H    5.248213   5.418490   2.468110   0.000000
    25  H    4.969575   4.833387   4.941956   4.284369   0.000000
    26  H    2.915683   2.641433   4.281450   4.942138   2.463640
    27  H    7.978814   7.799425   5.294968   2.994168   5.316837
    28  H    9.856925   9.218254   7.175665   5.392110   7.164192
    29  H    9.736745   9.373059   6.738090   4.779551   7.462588
    30  H    9.680746   8.978377   6.723100   5.544500   8.207934
    31  H    8.219549   7.402782   5.538663   4.526253   6.676423
    32  H    7.107689   6.803123   3.903784   2.705812   6.304384
    33  H    8.763112   8.491230   5.467004   4.215633   7.919437
    34  H    7.402587   6.671453   4.574374   4.624500   7.565084
    35  H    7.734809   7.373847   4.589964   4.596056   8.287792
    36  H    9.013630   8.395065   5.973243   5.651251   8.965632
                   26         27         28         29         30
    26  H    0.000000
    27  H    6.875884   0.000000
    28  H    8.581331   2.908068   0.000000
    29  H    8.840399   2.323267   1.763329   0.000000
    30  H    9.040195   4.066966   2.402910   2.513506   0.000000
    31  H    7.394717   3.518411   2.491599   3.055362   1.752927
    32  H    6.899594   2.817029   3.810578   3.088044   3.056832
    33  H    8.646030   3.504230   3.757278   2.575451   2.495391
    34  H    7.530156   5.066267   4.909582   4.772812   3.154625
    35  H    8.280638   5.277848   5.611442   4.897051   3.785446
    36  H    9.167224   5.484328   4.869198   4.459233   2.608593
                   31         32         33         34         35
    31  H    0.000000
    32  H    2.521416   0.000000
    33  H    3.062892   1.751976   0.000000
    34  H    2.600822   2.514987   3.071969   0.000000
    35  H    3.784932   2.495448   2.496503   1.764784   0.000000
    36  H    3.129727   3.070137   2.522191   1.762632   1.763309
                   36
    36  H    0.000000
 Stoichiometry    C12H18N2O3S
 Framework group  C1[X(C12H18N2O3S)]
 Deg. of freedom   102
 Full point group                 C1      NOp   1
 Largest Abelian subgroup         C1      NOp   1
 Largest concise Abelian subgroup C1      NOp   1
                         Standard orientation:                         
 ---------------------------------------------------------------------
 Center     Atomic      Atomic             Coordinates (Angstroms)
 Number     Number       Type             X           Y           Z
 ---------------------------------------------------------------------
      1          6           0        4.041534    2.976423    0.565596
      2          6           0        3.191209    1.769721    0.275567
      3          6           0        2.089224    1.850461   -0.575069
      4          6           0        1.312761    0.733468   -0.857203
      5          6           0        1.639500   -0.486846   -0.278701
      6          6           0        2.742226   -0.596109    0.566361
      7          6           0        3.504083    0.528104    0.838232
      8         16           0        0.651699   -1.925307   -0.608414
      9          7           0       -0.412197   -2.064651    0.660001
     10          8           0       -0.134122   -1.662484   -1.787087
     11          8           0        1.500586   -3.076293   -0.507116
     12          6           0       -1.639875   -1.403981    0.949894
     13          7           0       -2.263624   -0.818090   -0.092486
     14          6           0       -3.579750   -0.207498    0.064955
     15          6           0       -3.539731    1.279315    0.422489
     16          8           0       -2.051584   -1.436138    2.093129
     17          1           0       -0.020413   -2.508456    1.479731
     18          6           0       -2.962401    2.175959   -0.671906
     19          6           0       -2.928036    3.651795   -0.279337
     20          1           0        3.563923    3.893244    0.221017
     21          1           0        5.011122    2.897754    0.066484
     22          1           0        4.236526    3.074488    1.635164
     23          1           0        1.834045    2.799924   -1.029715
     24          1           0        0.472009    0.803988   -1.532370
     25          1           0        3.007413   -1.555249    0.989840
     26          1           0        4.362001    0.439806    1.494189
     27          1           0       -1.882643   -0.971371   -1.013955
     28          1           0       -4.110559   -0.756215    0.842644
     29          1           0       -4.118117   -0.354352   -0.874265
     30          1           0       -4.563994    1.595478    0.647928
     31          1           0       -2.968645    1.399990    1.347499
     32          1           0       -1.948956    1.843158   -0.915547
     33          1           0       -3.553278    2.055252   -1.586806
     34          1           0       -2.315093    3.807445    0.611764
     35          1           0       -2.514481    4.268102   -1.080129
     36          1           0       -3.930805    4.025559   -0.058142
 ---------------------------------------------------------------------
 Rotational constants (GHZ):      0.4195768      0.2790421      0.1953792
 Leave Link  202 at Wed Sep 27 14:31:11 2017, MaxMem=  1879048192 cpu:         0.1
 (Enter /net/software/local/gaussian09/E.01/g09/l301.exe)
 Standard basis: def2TZVP (5D, 7F)
 Ernie: Thresh=  0.10000D-02 Tol=  0.10000D-05 Strict=F.
 There are   762 symmetry adapted cartesian basis functions of A   symmetry.
 There are   672 symmetry adapted basis functions of A   symmetry.
   672 basis functions,  1080 primitive gaussians,   762 cartesian basis functions
    72 alpha electrons       72 beta electrons
       nuclear repulsion energy      1530.1175284926 Hartrees.
 IExCor=  402 DFT=T Ex+Corr=B3LYP ExCW=0 ScaHFX=  0.200000
 ScaDFX=  0.800000  0.720000  1.000000  0.810000 ScalE2=  1.000000  1.000000
 IRadAn=      0 IRanWt=     -1 IRanGd=            0 ICorTp=0 IEmpDi=  4
 NAtoms=   36 NActive=   36 NUniq=   36 SFac= 1.00D+00 NAtFMM=   60 NAOKFM=F Big=F
 Integral buffers will be    131072 words long.
 Regular integral format.
 Two-electron integral symmetry is turned on.
 Leave Link  301 at Wed Sep 27 14:31:12 2017, MaxMem=  1879048192 cpu:         0.8
 (Enter /net/software/local/gaussian09/E.01/g09/l302.exe)
 NPDir=0 NMtPBC=     1 NCelOv=     1 NCel=       1 NClECP=     1 NCelD=      1
         NCelK=      1 NCelE2=     1 NClLst=     1 CellRange=     0.0.
 One-electron integrals computed using PRISM.
   1 Symmetry operations used in ECPInt.
 ECPInt:  NShTT=   37128 NPrTT=  113514 LenC2=   32476 LenP2D=   70147.
 LDataN:  DoStor=T MaxTD1= 6 Len=  172
 NBasis=   672 RedAO= T EigKep=  6.88D-06  NBF=   672
 NBsUse=   672 1.00D-06 EigRej= -1.00D+00 NBFU=   672
 Precomputing XC quadrature grid using
 IXCGrd= 4 IRadAn=           0 IRanWt=          -1 IRanGd=           0 AccXCQ= 0.00D+00.
 Generated NRdTot=       0 NPtTot=           0 NUsed=           0 NTot=          32
 NSgBfM=   752   752   752   752   752 MxSgAt=    36 MxSgA2=    36.
 Leave Link  302 at Wed Sep 27 14:31:13 2017, MaxMem=  1879048192 cpu:         7.5
 (Enter /net/software/local/gaussian09/E.01/g09/l308.exe)
 Leave Link  308 at Wed Sep 27 14:31:13 2017, MaxMem=  1879048192 cpu:         1.8
 (Enter /net/software/local/gaussian09/E.01/g09/l303.exe)
 DipDrv:  MaxL=1.
 Leave Link  303 at Wed Sep 27 14:31:13 2017, MaxMem=  1879048192 cpu:         0.9
 (Enter /net/software/local/gaussian09/E.01/g09/l401.exe)
 ExpMin= 9.52D-02 ExpMax= 6.07D+04 ExpMxC= 2.07D+03 IAcc=2 IRadAn=         4 AccDes= 0.00D+00
 Harris functional with IExCor=  402 and IRadAn=       4 diagonalized for initial guess.
 HarFok:  IExCor=  402 AccDes= 0.00D+00 IRadAn=         4 IDoV= 1 UseB2=F ITyADJ=14
 ICtDFT=  3500011 ScaDFX=  1.000000  1.000000  1.000000  1.000000
 FoFCou: FMM=F IPFlag=           0 FMFlag=      100000 FMFlg1=           0
         NFxFlg=           0 DoJE=T BraDBF=F KetDBF=T FulRan=T
         wScrn=  0.000000 ICntrl=     500 IOpCl=  0 I1Cent=   200000004 NGrid=           0
         NMat0=    1 NMatS0=      1 NMatT0=    0 NMatD0=    1 NMtDS0=    0 NMtDT0=    0
 Petite list used in FoFCou.
 Harris En= -1201.97686710544    
 JPrj=0 DoOrth=F DoCkMO=F.
 Leave Link  401 at Wed Sep 27 14:31:16 2017, MaxMem=  1879048192 cpu:        25.2
 (Enter /net/software/local/gaussian09/E.01/g09/l502.exe)
 Closed shell SCF:
 Using DIIS extrapolation, IDIIS=  1040.
 Integral symmetry usage will be decided dynamically.
 IVT=     1772166 IEndB=     1772166 NGot=  1879048192 MDV=  1877874073
 LenX=  1877874073 LenY=  1877292667
 Requested convergence on RMS density matrix=1.00D-08 within 128 cycles.
 Requested convergence on MAX density matrix=1.00D-06.
 Requested convergence on             energy=1.00D-06.
 No special actions if energy rises.
 Fock matrices will be formed incrementally for  20 cycles.
 Integral accuracy reduced to 1.0D-05 until final iterations.

 Cycle   1  Pass 0  IDiag  1:
 FoFJK:  IHMeth= 1 ICntrl=       0 DoSepK=F KAlg= 0 I1Cent=   0 FoldK=F
 IRaf= 770000000 NMat=   1 IRICut=       1 DoRegI=T DoRafI=F ISym2E= 0.
 FoFCou: FMM=F IPFlag=           0 FMFlag=      100000 FMFlg1=           0
         NFxFlg=           0 DoJE=F BraDBF=F KetDBF=F FulRan=T
         wScrn=  0.000000 ICntrl=       0 IOpCl=  0 I1Cent=           0 NGrid=           0
         NMat0=    1 NMatS0=      1 NMatT0=    0 NMatD0=    1 NMtDS0=    0 NMtDT0=    0
 Symmetry not used in FoFCou.
 E= -1201.10376919944    
 DIIS: error= 1.69D-02 at cycle   1 NSaved=   1.
 NSaved= 1 IEnMin= 1 EnMin= -1201.10376919944     IErMin= 1 ErrMin= 1.69D-02
 ErrMax= 1.69D-02  0.00D+00 EMaxC= 1.00D-01 BMatC= 9.57D-01 BMatP= 9.57D-01
 IDIUse=3 WtCom= 8.31D-01 WtEn= 1.69D-01
 Coeff-Com:  0.100D+01
 Coeff-En:   0.100D+01
 Coeff:      0.100D+01
 Gap=     0.277 Goal=   None    Shift=    0.000
 GapD=    0.277 DampG=1.000 DampE=0.500 DampFc=0.5000 IDamp=-1.
 Damping current iteration by 5.00D-01
 RMSDP=3.74D-03 MaxDP=3.88D-01              OVMax= 2.79D-01

 Cycle   2  Pass 0  IDiag  1:
 RMSU=  1.87D-03    CP:  9.91D-01
 E= -1201.20771314649     Delta-E=       -0.103943947052 Rises=F Damp=T
 DIIS: error= 1.06D-02 at cycle   2 NSaved=   2.
 NSaved= 2 IEnMin= 2 EnMin= -1201.20771314649     IErMin= 2 ErrMin= 1.06D-02
 ErrMax= 1.06D-02  0.00D+00 EMaxC= 1.00D-01 BMatC= 1.99D-01 BMatP= 9.57D-01
 IDIUse=3 WtCom= 8.94D-01 WtEn= 1.06D-01
 Coeff-Com:  0.268D+00 0.732D+00
 Coeff-En:   0.436D+00 0.564D+00
 Coeff:      0.286D+00 0.714D+00
 Gap=     0.289 Goal=   None    Shift=    0.000
 RMSDP=1.26D-03 MaxDP=1.13D-01 DE=-1.04D-01 OVMax= 2.49D-01

 Cycle   3  Pass 0  IDiag  1:
 RMSU=  1.00D-03    CP:  9.79D-01  5.95D-01
 E= -1201.73292861789     Delta-E=       -0.525215471401 Rises=F Damp=F
 DIIS: error= 9.60D-03 at cycle   3 NSaved=   3.
 NSaved= 3 IEnMin= 3 EnMin= -1201.73292861789     IErMin= 3 ErrMin= 9.60D-03
 ErrMax= 9.60D-03  0.00D+00 EMaxC= 1.00D-01 BMatC= 1.39D-01 BMatP= 1.99D-01
 IDIUse=3 WtCom= 9.04D-01 WtEn= 9.60D-02
 Coeff-Com:  0.972D-01 0.455D+00 0.447D+00
 Coeff-En:   0.000D+00 0.000D+00 0.100D+01
 Coeff:      0.878D-01 0.412D+00 0.500D+00
 Gap=     0.231 Goal=   None    Shift=    0.000
 RMSDP=6.19D-04 MaxDP=3.20D-02 DE=-5.25D-01 OVMax= 9.76D-02

 Cycle   4  Pass 0  IDiag  1:
 RMSU=  4.67D-04    CP:  9.86D-01  6.67D-01  6.19D-01
 E= -1201.83673708206     Delta-E=       -0.103808464169 Rises=F Damp=F
 DIIS: error= 3.63D-03 at cycle   4 NSaved=   4.
 NSaved= 4 IEnMin= 4 EnMin= -1201.83673708206     IErMin= 4 ErrMin= 3.63D-03
 ErrMax= 3.63D-03  0.00D+00 EMaxC= 1.00D-01 BMatC= 1.97D-02 BMatP= 1.39D-01
 IDIUse=3 WtCom= 9.64D-01 WtEn= 3.63D-02
 Coeff-Com:  0.770D-02 0.109D+00 0.294D+00 0.590D+00
 Coeff-En:   0.000D+00 0.000D+00 0.137D+00 0.863D+00
 Coeff:      0.742D-02 0.105D+00 0.288D+00 0.600D+00
 Gap=     0.225 Goal=   None    Shift=    0.000
 RMSDP=1.91D-04 MaxDP=1.18D-02 DE=-1.04D-01 OVMax= 3.61D-02

 Cycle   5  Pass 0  IDiag  1:
 RMSU=  1.17D-04    CP:  9.85D-01  6.43D-01  7.02D-01  7.48D-01
 E= -1201.85216488450     Delta-E=       -0.015427802439 Rises=F Damp=F
 DIIS: error= 1.19D-03 at cycle   5 NSaved=   5.
 NSaved= 5 IEnMin= 5 EnMin= -1201.85216488450     IErMin= 5 ErrMin= 1.19D-03
 ErrMax= 1.19D-03  0.00D+00 EMaxC= 1.00D-01 BMatC= 1.62D-03 BMatP= 1.97D-02
 IDIUse=3 WtCom= 9.88D-01 WtEn= 1.19D-02
 Coeff-Com: -0.455D-02 0.233D-01 0.118D+00 0.335D+00 0.528D+00
 Coeff-En:   0.000D+00 0.000D+00 0.000D+00 0.954D-02 0.990D+00
 Coeff:     -0.450D-02 0.230D-01 0.116D+00 0.331D+00 0.534D+00
 Gap=     0.212 Goal=   None    Shift=    0.000
 RMSDP=6.30D-05 MaxDP=6.75D-03 DE=-1.54D-02 OVMax= 1.20D-02

 Cycle   6  Pass 0  IDiag  1:
 RMSU=  5.00D-05    CP:  9.84D-01  6.46D-01  6.97D-01  7.62D-01  6.89D-01
 E= -1201.85341247290     Delta-E=       -0.001247588398 Rises=F Damp=F
 DIIS: error= 4.25D-04 at cycle   6 NSaved=   6.
 NSaved= 6 IEnMin= 6 EnMin= -1201.85341247290     IErMin= 6 ErrMin= 4.25D-04
 ErrMax= 4.25D-04  0.00D+00 EMaxC= 1.00D-01 BMatC= 2.15D-04 BMatP= 1.62D-03
 IDIUse=3 WtCom= 9.96D-01 WtEn= 4.25D-03
 Coeff-Com: -0.311D-02 0.325D-02 0.385D-01 0.131D+00 0.321D+00 0.510D+00
 Coeff-En:   0.000D+00 0.000D+00 0.000D+00 0.000D+00 0.811D-01 0.919D+00
 Coeff:     -0.310D-02 0.324D-02 0.384D-01 0.130D+00 0.320D+00 0.511D+00
 Gap=     0.211 Goal=   None    Shift=    0.000
 RMSDP=2.55D-05 MaxDP=1.07D-03 DE=-1.25D-03 OVMax= 3.25D-03

 Cycle   7  Pass 0  IDiag  1:
 RMSU=  2.33D-05    CP:  9.84D-01  6.45D-01  6.99D-01  7.64D-01  7.32D-01
                    CP:  8.33D-01
 E= -1201.85358359537     Delta-E=       -0.000171122470 Rises=F Damp=F
 DIIS: error= 8.70D-05 at cycle   7 NSaved=   7.
 NSaved= 7 IEnMin= 7 EnMin= -1201.85358359537     IErMin= 7 ErrMin= 8.70D-05
 ErrMax= 8.70D-05  0.00D+00 EMaxC= 1.00D-01 BMatC= 1.66D-05 BMatP= 2.15D-04
 IDIUse=1 WtCom= 1.00D+00 WtEn= 0.00D+00
 Coeff-Com: -0.113D-02-0.980D-03 0.858D-02 0.365D-01 0.125D+00 0.286D+00
 Coeff-Com:  0.546D+00
 Coeff:     -0.113D-02-0.980D-03 0.858D-02 0.365D-01 0.125D+00 0.286D+00
 Coeff:      0.546D+00
 Gap=     0.211 Goal=   None    Shift=    0.000
 RMSDP=1.21D-05 MaxDP=6.11D-04 DE=-1.71D-04 OVMax= 6.24D-04

 Cycle   8  Pass 0  IDiag  1:
 RMSU=  1.15D-05    CP:  9.84D-01  6.46D-01  7.00D-01  7.69D-01  7.45D-01
                    CP:  8.49D-01  9.21D-01
 E= -1201.85359715244     Delta-E=       -0.000013557070 Rises=F Damp=F
 DIIS: error= 3.79D-05 at cycle   8 NSaved=   8.
 NSaved= 8 IEnMin= 8 EnMin= -1201.85359715244     IErMin= 8 ErrMin= 3.79D-05
 ErrMax= 3.79D-05  0.00D+00 EMaxC= 1.00D-01 BMatC= 1.02D-06 BMatP= 1.66D-05
 IDIUse=1 WtCom= 1.00D+00 WtEn= 0.00D+00
 Coeff-Com: -0.267D-03-0.660D-03 0.137D-02 0.785D-02 0.389D-01 0.102D+00
 Coeff-Com:  0.268D+00 0.582D+00
 Coeff:     -0.267D-03-0.660D-03 0.137D-02 0.785D-02 0.389D-01 0.102D+00
 Coeff:      0.268D+00 0.582D+00
 Gap=     0.211 Goal=   None    Shift=    0.000
 RMSDP=1.53D-05 MaxDP=1.06D-03 DE=-1.36D-05 OVMax= 4.20D-04

 Cycle   9  Pass 0  IDiag  1:
 RMSU=  1.02D-05    CP:  9.84D-01  6.47D-01  6.99D-01  7.75D-01  7.61D-01
                    CP:  8.20D-01  1.04D+00  1.89D+00
 E= -1201.85359635547     Delta-E=        0.000000796968 Rises=F Damp=F
 DIIS: error= 3.14D-05 at cycle   9 NSaved=   9.
 NSaved= 9 IEnMin= 8 EnMin= -1201.85359715244     IErMin= 9 ErrMin= 3.14D-05
 ErrMax= 3.14D-05  0.00D+00 EMaxC= 1.00D-01 BMatC= 3.52D-07 BMatP= 1.02D-06
 IDIUse=1 WtCom= 1.00D+00 WtEn= 0.00D+00
 Coeff-Com: -0.935D-05-0.284D-03-0.276D-03-0.501D-04 0.817D-02 0.266D-01
 Coeff-Com:  0.950D-01 0.390D+00 0.481D+00
 Coeff:     -0.935D-05-0.284D-03-0.276D-03-0.501D-04 0.817D-02 0.266D-01
 Coeff:      0.950D-01 0.390D+00 0.481D+00
 Gap=     0.211 Goal=   None    Shift=    0.000
 RMSDP=2.23D-05 MaxDP=1.80D-03 DE= 7.97D-07 OVMax= 1.96D-04

 Cycle  10  Pass 0  IDiag  1:
 RMSU=  6.01D-06    CP:  9.85D-01  6.48D-01  6.97D-01  7.81D-01  7.76D-01
                    CP:  8.08D-01  1.27D+00  3.00D+00  2.46D+00
 E= -1201.85359426521     Delta-E=        0.000002090264 Rises=F Damp=F
 DIIS: error= 3.14D-05 at cycle  10 NSaved=  10.
 NSaved=10 IEnMin= 8 EnMin= -1201.85359715244     IErMin=10 ErrMin= 3.14D-05
 ErrMax= 3.14D-05  0.00D+00 EMaxC= 1.00D-01 BMatC= 6.84D-08 BMatP= 3.52D-07
 IDIUse=1 WtCom= 1.00D+00 WtEn= 0.00D+00
 Coeff-Com: -0.517D-05-0.208D-03-0.232D-03-0.166D-03 0.573D-02 0.189D-01
 Coeff-Com:  0.684D-01 0.292D+00 0.376D+00 0.240D+00
 Coeff:     -0.517D-05-0.208D-03-0.232D-03-0.166D-03 0.573D-02 0.189D-01
 Coeff:      0.684D-01 0.292D+00 0.376D+00 0.240D+00
 Gap=     0.211 Goal=   None    Shift=    0.000
 RMSDP=1.74D-05 MaxDP=1.40D-03 DE= 2.09D-06 OVMax= 1.40D-05

 Problem detected with inexpensive integrals.
 Switching to full accuracy and repeating last cycle.
 Cycle  11  Pass 1  IDiag  1:
 E= -1201.85350566355     Delta-E=        0.000088601653 Rises=F Damp=F
 DIIS: error= 4.19D-04 at cycle   1 NSaved=   1.
 NSaved= 1 IEnMin= 1 EnMin= -1201.85350566355     IErMin= 1 ErrMin= 4.19D-04
 ErrMax= 4.19D-04  0.00D+00 EMaxC= 1.00D-01 BMatC= 3.98D-05 BMatP= 3.98D-05
 IDIUse=3 WtCom= 9.96D-01 WtEn= 4.19D-03
 Coeff-Com:  0.100D+01
 Coeff-En:   0.100D+01
 Coeff:      0.100D+01
 Gap=     0.211 Goal=   None    Shift=    0.000
 RMSDP=8.25D-04 MaxDP=4.76D-02 DE= 8.86D-05 OVMax= 7.45D-04

 Cycle  12  Pass 1  IDiag  1:
 RMSU=  8.14D-04    CP:  9.81D-01
 E= -1201.85353071450     Delta-E=       -0.000025050947 Rises=F Damp=F
 DIIS: error= 6.90D-06 at cycle   2 NSaved=   2.
 NSaved= 2 IEnMin= 2 EnMin= -1201.85353071450     IErMin= 2 ErrMin= 6.90D-06
 ErrMax= 6.90D-06  0.00D+00 EMaxC= 1.00D-01 BMatC= 7.41D-08 BMatP= 3.98D-05
 IDIUse=1 WtCom= 1.00D+00 WtEn= 0.00D+00
 Coeff-Com: -0.485D-02 0.100D+01
 Coeff:     -0.485D-02 0.100D+01
 Gap=     0.211 Goal=   None    Shift=    0.000
 RMSDP=1.03D-05 MaxDP=5.83D-04 DE=-2.51D-05 OVMax= 1.68D-04

 Cycle  13  Pass 1  IDiag  1:
 RMSU=  5.43D-06    CP:  9.81D-01  1.01D+00
 E= -1201.85353057988     Delta-E=        0.000000134621 Rises=F Damp=F
 DIIS: error= 1.62D-05 at cycle   3 NSaved=   3.
 NSaved= 3 IEnMin= 2 EnMin= -1201.85353071450     IErMin= 2 ErrMin= 6.90D-06
 ErrMax= 1.62D-05  0.00D+00 EMaxC= 1.00D-01 BMatC= 2.37D-07 BMatP= 7.41D-08
 IDIUse=1 WtCom= 1.00D+00 WtEn= 0.00D+00
 Coeff-Com: -0.482D-02 0.652D+00 0.353D+00
 Coeff:     -0.482D-02 0.652D+00 0.353D+00
 Gap=     0.211 Goal=   None    Shift=    0.000
 RMSDP=6.78D-07 MaxDP=3.14D-05 DE= 1.35D-07 OVMax= 1.16D-04

 Cycle  14  Pass 1  IDiag  1:
 RMSU=  6.67D-07    CP:  9.81D-01  1.01D+00  9.79D-01
 E= -1201.85353078313     Delta-E=       -0.000000203255 Rises=F Damp=F
 DIIS: error= 2.46D-06 at cycle   4 NSaved=   4.
 NSaved= 4 IEnMin= 4 EnMin= -1201.85353078313     IErMin= 4 ErrMin= 2.46D-06
 ErrMax= 2.46D-06  0.00D+00 EMaxC= 1.00D-01 BMatC= 4.20D-09 BMatP= 7.41D-08
 IDIUse=1 WtCom= 1.00D+00 WtEn= 0.00D+00
 Coeff-Com: -0.234D-02 0.304D+00 0.187D+00 0.511D+00
 Coeff:     -0.234D-02 0.304D+00 0.187D+00 0.511D+00
 Gap=     0.211 Goal=   None    Shift=    0.000
 RMSDP=1.25D-07 MaxDP=6.10D-06 DE=-2.03D-07 OVMax= 1.83D-05

 Cycle  15  Pass 1  IDiag  1:
 RMSU=  1.07D-07    CP:  9.81D-01  1.01D+00  9.87D-01  9.37D-01
 E= -1201.85353078628     Delta-E=       -0.000000003150 Rises=F Damp=F
 DIIS: error= 6.81D-07 at cycle   5 NSaved=   5.
 NSaved= 5 IEnMin= 5 EnMin= -1201.85353078628     IErMin= 5 ErrMin= 6.81D-07
 ErrMax= 6.81D-07  0.00D+00 EMaxC= 1.00D-01 BMatC= 5.42D-10 BMatP= 4.20D-09
 IDIUse=1 WtCom= 1.00D+00 WtEn= 0.00D+00
 Coeff-Com: -0.325D-03 0.368D-01 0.299D-01 0.275D+00 0.658D+00
 Coeff:     -0.325D-03 0.368D-01 0.299D-01 0.275D+00 0.658D+00
 Gap=     0.211 Goal=   None    Shift=    0.000
 RMSDP=6.17D-08 MaxDP=2.28D-06 DE=-3.15D-09 OVMax= 4.83D-06

 Cycle  16  Pass 1  IDiag  1:
 RMSU=  4.54D-08    CP:  9.81D-01  1.01D+00  9.92D-01  9.53D-01  8.65D-01
 E= -1201.85353078664     Delta-E=       -0.000000000361 Rises=F Damp=F
 DIIS: error= 1.62D-07 at cycle   6 NSaved=   6.
 NSaved= 6 IEnMin= 6 EnMin= -1201.85353078664     IErMin= 6 ErrMin= 1.62D-07
 ErrMax= 1.62D-07  0.00D+00 EMaxC= 1.00D-01 BMatC= 8.87D-11 BMatP= 5.42D-10
 IDIUse=1 WtCom= 1.00D+00 WtEn= 0.00D+00
 Coeff-Com:  0.236D-04-0.639D-02 0.303D-03 0.113D+00 0.389D+00 0.505D+00
 Coeff:      0.236D-04-0.639D-02 0.303D-03 0.113D+00 0.389D+00 0.505D+00
 Gap=     0.211 Goal=   None    Shift=    0.000
 RMSDP=1.68D-08 MaxDP=9.00D-07 DE=-3.61D-10 OVMax= 1.85D-06

 Cycle  17  Pass 1  IDiag  1:
 RMSU=  1.37D-08    CP:  9.81D-01  1.01D+00  9.93D-01  9.55D-01  8.90D-01
                    CP:  8.56D-01
 E= -1201.85353078671     Delta-E=       -0.000000000064 Rises=F Damp=F
 DIIS: error= 5.95D-08 at cycle   7 NSaved=   7.
 NSaved= 7 IEnMin= 7 EnMin= -1201.85353078671     IErMin= 7 ErrMin= 5.95D-08
 ErrMax= 5.95D-08  0.00D+00 EMaxC= 1.00D-01 BMatC= 7.15D-12 BMatP= 8.87D-11
 IDIUse=1 WtCom= 1.00D+00 WtEn= 0.00D+00
 Coeff-Com:  0.370D-04-0.647D-02-0.185D-02 0.467D-01 0.183D+00 0.296D+00
 Coeff-Com:  0.483D+00
 Coeff:      0.370D-04-0.647D-02-0.185D-02 0.467D-01 0.183D+00 0.296D+00
 Coeff:      0.483D+00
 Gap=     0.211 Goal=   None    Shift=    0.000
 RMSDP=4.22D-09 MaxDP=4.17D-07 DE=-6.37D-11 OVMax= 8.02D-07

 SCF Done:  E(RB3LYP) =  -1201.85353079     A.U. after   17 cycles
            NFock= 17  Conv=0.42D-08     -V/T= 2.0039
 KE= 1.197180867305D+03 PE=-5.879334177305D+03 EE= 1.950182250721D+03
 Leave Link  502 at Wed Sep 27 14:39:50 2017, MaxMem=  1879048192 cpu:      4062.6
 (Enter /net/software/local/gaussian09/E.01/g09/l801.exe)
 DoSCS=F DFT=T ScalE2(SS,OS)=  1.000000  1.000000
 ExpMin= 9.52D-02 ExpMax= 6.07D+04 ExpMxC= 2.07D+03 IAcc=3 IRadAn=         5 AccDes= 0.00D+00
 HarFok:  IExCor=  205 AccDes= 0.00D+00 IRadAn=         5 IDoV=-2 UseB2=F ITyADJ=14
 ICtDFT= 12500011 ScaDFX=  1.000000  1.000000  1.000000  1.000000
 Largest valence mixing into a core orbital is  9.23D-05
 Largest core mixing into a valence orbital is  2.14D-05
 Range of M.O.s used for correlation:    23   672
 NBasis=   672 NAE=    72 NBE=    72 NFC=    22 NFV=     0
 NROrb=    650 NOA=    50 NOB=    50 NVA=   600 NVB=   600

 **** Warning!!: The largest alpha MO coefficient is  0.48479990D+02

 Leave Link  801 at Wed Sep 27 14:39:51 2017, MaxMem=  1879048192 cpu:         2.3
 (Enter /net/software/local/gaussian09/E.01/g09/l914.exe)
 RHF ground state
 MDV=  1879048192 DFT=T DoStab=F Mixed=T DoRPA=T DoScal=F NonHer=T
 Would need an additional         81548000000 words for in-memory AO integral storage.
 Making orbital integer symmetry assigments:
 Orbital symmetries:
       Occupied  (A) (A) (A) (A) (A) (A) (A) (A) (A) (A) (A) (A)
                 (A) (A) (A) (A) (A) (A) (A) (A) (A) (A) (A) (A)
                 (A) (A) (A) (A) (A) (A) (A) (A) (A) (A) (A) (A)
                 (A) (A) (A) (A) (A) (A) (A) (A) (A) (A) (A) (A)
                 (A) (A) (A) (A) (A) (A) (A) (A) (A) (A) (A) (A)
                 (A) (A) (A) (A) (A) (A) (A) (A) (A) (A) (A) (A)
       Virtual   (A) (A) (A) (A) (A) (A) (A) (A) (A) (A) (A) (A)
                 (A) (A) (A) (A) (A) (A) (A) (A) (A) (A) (A) (A)
                 (A) (A) (A) (A) (A) (A) (A) (A) (A) (A) (A) (A)
                 (A) (A) (A) (A) (A) (A) (A) (A) (A) (A) (A) (A)
                 (A) (A) (A) (A) (A) (A) (A) (A) (A) (A) (A) (A)
                 (A) (A) (A) (A) (A) (A) (A) (A) (A) (A) (A) (A)
                 (A) (A) (A) (A) (A) (A) (A) (A) (A) (A) (A) (A)
                 (A) (A) (A) (A) (A) (A) (A) (A) (A) (A) (A) (A)
                 (A) (A) (A) (A) (A) (A) (A) (A) (A) (A) (A) (A)
                 (A) (A) (A) (A) (A) (A) (A) (A) (A) (A) (A) (A)
                 (A) (A) (A) (A) (A) (A) (A) (A) (A) (A) (A) (A)
                 (A) (A) (A) (A) (A) (A) (A) (A) (A) (A) (A) (A)
                 (A) (A) (A) (A) (A) (A) (A) (A) (A) (A) (A) (A)
                 (A) (A) (A) (A) (A) (A) (A) (A) (A) (A) (A) (A)
                 (A) (A) (A) (A) (A) (A) (A) (A) (A) (A) (A) (A)
                 (A) (A) (A) (A) (A) (A) (A) (A) (A) (A) (A) (A)
                 (A) (A) (A) (A) (A) (A) (A) (A) (A) (A) (A) (A)
                 (A) (A) (A) (A) (A) (A) (A) (A) (A) (A) (A) (A)
                 (A) (A) (A) (A) (A) (A) (A) (A) (A) (A) (A) (A)
                 (A) (A) (A) (A) (A) (A) (A) (A) (A) (A) (A) (A)
                 (A) (A) (A) (A) (A) (A) (A) (A) (A) (A) (A) (A)
                 (A) (A) (A) (A) (A) (A) (A) (A) (A) (A) (A) (A)
                 (A) (A) (A) (A) (A) (A) (A) (A) (A) (A) (A) (A)
                 (A) (A) (A) (A) (A) (A) (A) (A) (A) (A) (A) (A)
                 (A) (A) (A) (A) (A) (A) (A) (A) (A) (A) (A) (A)
                 (A) (A) (A) (A) (A) (A) (A) (A) (A) (A) (A) (A)
                 (A) (A) (A) (A) (A) (A) (A) (A) (A) (A) (A) (A)
                 (A) (A) (A) (A) (A) (A) (A) (A) (A) (A) (A) (A)
                 (A) (A) (A) (A) (A) (A) (A) (A) (A) (A) (A) (A)
                 (A) (A) (A) (A) (A) (A) (A) (A) (A) (A) (A) (A)
                 (A) (A) (A) (A) (A) (A) (A) (A) (A) (A) (A) (A)
                 (A) (A) (A) (A) (A) (A) (A) (A) (A) (A) (A) (A)
                 (A) (A) (A) (A) (A) (A) (A) (A) (A) (A) (A) (A)
                 (A) (A) (A) (A) (A) (A) (A) (A) (A) (A) (A) (A)
                 (A) (A) (A) (A) (A) (A) (A) (A) (A) (A) (A) (A)
                 (A) (A) (A) (A) (A) (A) (A) (A) (A) (A) (A) (A)
                 (A) (A) (A) (A) (A) (A) (A) (A) (A) (A) (A) (A)
                 (A) (A) (A) (A) (A) (A) (A) (A) (A) (A) (A) (A)
                 (A) (A) (A) (A) (A) (A) (A) (A) (A) (A) (A) (A)
                 (A) (A) (A) (A) (A) (A) (A) (A) (A) (A) (A) (A)
                 (A) (A) (A) (A) (A) (A) (A) (A) (A) (A) (A) (A)
                 (A) (A) (A) (A) (A) (A) (A) (A) (A) (A) (A) (A)
                 (A) (A) (A) (A) (A) (A) (A) (A) (A) (A) (A) (A)
                 (A) (A) (A) (A) (A) (A) (A) (A) (A) (A) (A) (A)
                 (A) (A) (A) (A) (A) (A) (A) (A) (A) (A) (A) (A)
                 (A) (A) (A) (A) (A) (A) (A) (A) (A) (A) (A) (A)
                 (A) (A) (A) (A) (A) (A) (A) (A) (A) (A) (A) (A)
                 (A) (A) (A) (A) (A) (A) (A) (A) (A) (A) (A) (A)
                 (A) (A) (A) (A) (A) (A) (A) (A) (A) (A) (A) (A)
                 (A) (A) (A) (A) (A) (A) (A) (A) (A) (A) (A) (A)
   320 initial guesses have been made.
 Convergence on wavefunction:    0.001000000000000
 Davidson Disk Diagonalization:  ConvIn= 1.00D-03 SkipCon=T Conv= 1.00D-03.
 Max sub-space:  1280 roots to seek:   320 dimension of matrix:        60000
 Iteration     1 Dimension   320 NMult     0 NNew    320
 CISAX will form   320 AO SS matrices at one time.
 NMat=   320 NSing=   320 JSym2X= 0.
 FoFJK:  IHMeth= 1 ICntrl=       0 DoSepK=F KAlg= 0 I1Cent=   0 FoldK=F
 IRaf=         0 NMat= 640 IRICut=     800 DoRegI=T DoRafI=T ISym2E= 0.
 FoFCou: FMM=F IPFlag=           0 FMFlag=      100000 FMFlg1=           0
         NFxFlg=           0 DoJE=F BraDBF=F KetDBF=F FulRan=T
         wScrn=  0.000000 ICntrl=       0 IOpCl=  0 I1Cent=           0 NGrid=           0
         NMat0=  640 NMatS0=    320 NMatT0=    0 NMatD0=  640 NMtDS0=    0 NMtDT0=    0
 Symmetry not used in FoFCou.
 New state      2 was old state      5
 New state      5 was old state      2
 New state      6 was old state      7
 New state      7 was old state      9
 New state      8 was old state     10
 New state      9 was old state     11
 New state     10 was old state     22
 New state     11 was old state     14
 New state     12 was old state     15
 New state     13 was old state     17
 New state     14 was old state     16
 New state     15 was old state     13
 New state     16 was old state     12
 New state     17 was old state     19
 New state     18 was old state     25
 New state     19 was old state     20
 New state     20 was old state     35
 New state     21 was old state     26
 New state     22 was old state     32
 New state     23 was old state     29
 New state     24 was old state     30
 New state     25 was old state     23
 New state     26 was old state     24
 New state     27 was old state     21
 New state     28 was old state     27
 New state     29 was old state     28
 New state     30 was old state     31
 New state     31 was old state     33
 New state     32 was old state     48
 New state     33 was old state     39
 New state     34 was old state     37
 New state     35 was old state     18
 New state     36 was old state      8
 New state     37 was old state     41
 New state     38 was old state     53
 New state     39 was old state     34
 New state     40 was old state     43
 New state     41 was old state     45
 New state     42 was old state     40
 New state     43 was old state     36
 New state     44 was old state     38
 New state     45 was old state     63
 New state     46 was old state     44
 New state     47 was old state     42
 New state     48 was old state     46
 New state     49 was old state     57
 New state     50 was old state     51
 New state     51 was old state     71
 New state     52 was old state     60
 New state     53 was old state     47
 New state     54 was old state     52
 New state     55 was old state     49
 New state     56 was old state     50
 New state     57 was old state     55
 New state     58 was old state     62
 New state     60 was old state     54
 New state     61 was old state     64
 New state     62 was old state     56
 New state     63 was old state     58
 New state     64 was old state     67
 New state     65 was old state     70
 New state     66 was old state     83
 New state     67 was old state     72
 New state     69 was old state     76
 New state     70 was old state     74
 New state     71 was old state     75
 New state     72 was old state     69
 New state     73 was old state     80
 New state     74 was old state     78
 New state     75 was old state     65
 New state     76 was old state     77
 New state     77 was old state     88
 New state     78 was old state     82
 New state     79 was old state     66
 New state     80 was old state     84
 Excitation Energies [eV] at current iteration:
 Root      1 :     5.157823396199388
 Root      2 :     5.239243793846121
 Root      3 :     5.413486073804749
 Root      4 :     5.641591140906645
 Root      5 :     5.885193541729068
 Root      6 :     5.978987216627485
 Root      7 :     6.406328531322989
 Root      8 :     6.565656480319725
 Root      9 :     6.656327651824398
 Root     10 :     6.673188810696402
 Root     11 :     6.809351742445522
 Root     12 :     6.960588839623934
 Root     13 :     6.988466254375408
 Root     14 :     7.081742016681694
 Root     15 :     7.094181522045446
 Root     16 :     7.131646964025364
 Root     17 :     7.240146996575676
 Root     18 :     7.269665593939362
 Root     19 :     7.287522965649281
 Root     20 :     7.323601835185055
 Root     21 :     7.344197174583837
 Root     22 :     7.411448941290363
 Root     23 :     7.468372198591428
 Root     24 :     7.498260208278881
 Root     25 :     7.554202472423119
 Root     26 :     7.572485731995356
 Root     27 :     7.581443333567313
 Root     28 :     7.582451694658312
 Root     29 :     7.619522430227009
 Root     30 :     7.665627164691809
 Root     31 :     7.703942499210815
 Root     32 :     7.750690129219855
 Root     33 :     7.767282943870896
 Root     34 :     7.806632198963739
 Root     35 :     7.834142432550011
 Root     36 :     7.855914869682355
 Root     37 :     7.879375118455870
 Root     38 :     7.930177321797224
 Root     39 :     7.936239392159103
 Root     40 :     7.958962694962644
 Root     41 :     7.996112721687116
 Root     42 :     8.023092425736316
 Root     43 :     8.037993478282921
 Root     44 :     8.082919043851616
 Root     45 :     8.094629644332567
 Root     46 :     8.125635126701800
 Root     47 :     8.172086978328407
 Root     48 :     8.227155451854268
 Root     49 :     8.265714596159572
 Root     50 :     8.286011895270571
 Root     51 :     8.291487575637806
 Root     52 :     8.305299475839574
 Root     53 :     8.341003411691792
 Root     54 :     8.347388843946421
 Root     55 :     8.355830975159520
 Root     56 :     8.381997537133103
 Root     57 :     8.391451957934178
 Root     58 :     8.451326292472991
 Root     59 :     8.492307823352274
 Root     60 :     8.499856045408455
 Root     61 :     8.598382535677702
 Root     62 :     8.628736356694025
 Root     63 :     8.635555200200917
 Root     64 :     8.645535643931723
 Root     65 :     8.658272381095914
 Root     66 :     8.677512896662693
 Root     67 :     8.696314422394314
 Root     68 :     8.713718295558232
 Root     69 :     8.725636083851629
 Root     70 :     8.752515080192566
 Root     71 :     8.770921021938966
 Root     72 :     8.790608850974278
 Root     73 :     8.810221067548619
 Root     74 :     8.822786396496076
 Root     75 :     8.829856131709432
 Root     76 :     8.853721218492275
 Root     77 :     8.867055865441619
 Root     78 :     8.878727034760836
 Root     79 :     8.884458423419630
 Root     80 :     8.904046430152095
 Root     81 :     8.923652980813277
 Root     82 :     8.948734257132831
 Root     83 :     8.988760697804070
 Root     84 :     9.027058746739035
 Root     85 :     9.059898933068244
 Root     86 :     9.091326790985962
 Root     87 :     9.100752298031178
 Root     88 :     9.105932378847784
 Root     89 :     9.117677800625412
 Root     90 :     9.129520497278003
 Root     91 :     9.141316650351905
 Root     92 :     9.156771911071669
 Root     93 :     9.166463039154479
 Root     94 :     9.181051441407124
 Root     95 :     9.195025569314259
 Root     96 :     9.210137497911459
 Root     97 :     9.271257322959553
 Root     98 :     9.289270803349631
 Root     99 :     9.305627286769068
 Root    100 :     9.341569402952025
 Root    101 :     9.356313048809040
 Root    102 :     9.370825837761103
 Root    103 :     9.377179095925712
 Root    104 :     9.388124079973233
 Root    105 :     9.409926714372153
 Root    106 :     9.427680417584732
 Root    107 :     9.441423589366881
 Root    108 :     9.450967477991885
 Root    109 :     9.464105979175551
 Root    110 :     9.472654752449580
 Root    111 :     9.475254456407363
 Root    112 :     9.482100710065918
 Root    113 :     9.489734680632914
 Root    114 :     9.503755955073823
 Root    115 :     9.508148594516117
 Root    116 :     9.519632837005661
 Root    117 :     9.546281447921146
 Root    118 :     9.572273987225630
 Root    119 :     9.590645413181923
 Root    120 :     9.601750968635372
 Root    121 :     9.617144803237696
 Root    122 :     9.631499135383883
 Root    123 :     9.637195471226383
 Root    124 :     9.648002785448675
 Root    125 :     9.669705698228238
 Root    126 :     9.681328647984628
 Root    127 :     9.696514803735095
 Root    128 :     9.710611774570820
 Root    129 :     9.718978851244762
 Root    130 :     9.729519014931251
 Root    131 :     9.745083216850036
 Root    132 :     9.765482824264716
 Root    133 :     9.772178455210486
 Root    134 :     9.776190087440039
 Root    135 :     9.788216296295380
 Root    136 :     9.795806155932102
 Root    137 :     9.808290927866706
 Root    138 :     9.813339526554497
 Root    139 :     9.820176855589290
 Root    140 :     9.836544686151914
 Root    141 :     9.842029038814823
 Root    142 :     9.847901766015919
 Root    143 :     9.854202268721631
 Root    144 :     9.859010709847279
 Root    145 :     9.861686736494331
 Root    146 :     9.867073795232107
 Root    147 :     9.876596561737424
 Root    148 :     9.883967360124910
 Root    149 :     9.893377776149947
 Root    150 :     9.899150721518257
 Root    151 :     9.905013604226642
 Root    152 :     9.929207827082319
 Root    153 :     9.942793262918276
 Root    154 :     9.948449934190091
 Root    155 :     9.960739730194927
 Root    156 :     9.978784031414873
 Root    157 :     9.987245441406872
 Root    158 :     9.993736881256915
 Root    159 :    10.001717516357620
 Root    160 :    10.008063254794330
 Root    161 :    10.023864187919310
 Root    162 :    10.033585614635920
 Root    163 :    10.039128405070600
 Root    164 :    10.051930862506460
 Root    165 :    10.062894983378860
 Root    166 :    10.067013020918750
 Root    167 :    10.071210174438120
 Root    168 :    10.088499948702810
 Root    169 :    10.097841507254380
 Root    170 :    10.110234048474440
 Root    171 :    10.114990539258930
 Root    172 :    10.136314639603180
 Root    173 :    10.163236916441760
 Root    174 :    10.173958179586090
 Root    175 :    10.180912699616200
 Root    176 :    10.188757068534030
 Root    177 :    10.204351094451770
 Root    178 :    10.209487393762720
 Root    179 :    10.214423661335780
 Root    180 :    10.227812524432100
 Root    181 :    10.240224606059340
 Root    182 :    10.244766104439580
 Root    183 :    10.254678448357890
 Root    184 :    10.261020199710860
 Root    185 :    10.277967183182910
 Root    186 :    10.287737734447900
 Root    187 :    10.298365306023450
 Root    188 :    10.301773617364000
 Root    189 :    10.307986415923240
 Root    190 :    10.318328360052040
 Root    191 :    10.320119804418560
 Root    192 :    10.323816124696450
 Root    193 :    10.338979619340130
 Root    194 :    10.341542457692540
 Root    195 :    10.350034043533370
 Root    196 :    10.359289317168710
 Root    197 :    10.371696473719430
 Root    198 :    10.377855183324920
 Root    199 :    10.397822182672140
 Root    200 :    10.415478454379870
 Root    201 :    10.430573275483630
 Root    202 :    10.438211711786750
 Root    203 :    10.451384328805300
 Root    204 :    10.458922248782160
 Root    205 :    10.463561497605680
 Root    206 :    10.473109949767930
 Root    207 :    10.491602963104940
 Root    208 :    10.495439713994980
 Root    209 :    10.502055252328540
 Root    210 :    10.509581478298730
 Root    211 :    10.516657772418860
 Root    212 :    10.525598824794650
 Root    213 :    10.537391408746340
 Root    214 :    10.549396539771440
 Root    215 :    10.557716166837050
 Root    216 :    10.563484478071660
 Root    217 :    10.575816395636240
 Root    218 :    10.582572154068940
 Root    219 :    10.585950542157900
 Root    220 :    10.598502155291320
 Root    221 :    10.609938414872110
 Root    222 :    10.623918815402090
 Root    223 :    10.633522174993800
 Root    224 :    10.645843553875010
 Root    225 :    10.656842835189710
 Root    226 :    10.666276592749020
 Root    227 :    10.682743824322830
 Root    228 :    10.687665634207280
 Root    229 :    10.691013682191070
 Root    230 :    10.697793556432440
 Root    231 :    10.699807416391670
 Root    232 :    10.713771366335700
 Root    233 :    10.715162632635670
 Root    234 :    10.717320386011340
 Root    235 :    10.724417104727860
 Root    236 :    10.737325270612020
 Root    237 :    10.741589920467460
 Root    238 :    10.756812264865380
 Root    239 :    10.764497549893710
 Root    240 :    10.778445570073590
 Root    241 :    10.787516130808290
 Root    242 :    10.798775809530030
 Root    243 :    10.802002004562890
 Root    244 :    10.812442795578920
 Root    245 :    10.816379065003920
 Root    246 :    10.837586691457700
 Root    247 :    10.838751310756830
 Root    248 :    10.844802222094490
 Root    249 :    10.853540315058360
 Root    250 :    10.857441515200580
 Root    251 :    10.863368165733480
 Root    252 :    10.865204018196700
 Root    253 :    10.871701169758120
 Root    254 :    10.875122314611440
 Root    255 :    10.884058045991200
 Root    256 :    10.903541860948130
 Root    257 :    10.918753094295410
 Root    258 :    10.920881087860000
 Root    259 :    10.937105429316440
 Root    260 :    10.944611062159280
 Root    261 :    10.954498050939930
 Root    262 :    10.961769157226080
 Root    263 :    10.966154778370830
 Root    264 :    10.972336321123760
 Root    265 :    10.985165111989930
 Root    266 :    10.996852930575270
 Root    267 :    11.000471780551890
 Root    268 :    11.022042289656350
 Root    269 :    11.034148701068770
 Root    270 :    11.045534362865380
 Root    271 :    11.054749144467510
 Root    272 :    11.061558982855620
 Root    273 :    11.073123043497160
 Root    274 :    11.080756384111150
 Root    275 :    11.086467646632780
 Root    276 :    11.094082663476340
 Root    277 :    11.098750551645780
 Root    278 :    11.106301399978730
 Root    279 :    11.112243071282740
 Root    280 :    11.117907017592880
 Root    281 :    11.120926700975350
 Root    282 :    11.139303775144310
 Root    283 :    11.159878739008120
 Root    284 :    11.164478724292530
 Root    285 :    11.180502569211690
 Root    286 :    11.198714275018440
 Root    287 :    11.211966071571900
 Root    288 :    11.220232284784420
 Root    289 :    11.233006661048990
 Root    290 :    11.239021348921380
 Root    291 :    11.243250976759840
 Root    292 :    11.249632815410210
 Root    293 :    11.262131371805550
 Root    294 :    11.279642052322010
 Root    295 :    11.282912653999700
 Root    296 :    11.292177576766100
 Root    297 :    11.297798674527290
 Root    298 :    11.302842518745700
 Root    299 :    11.316136353838780
 Root    300 :    11.333784308058270
 Root    301 :    11.352900527094330
 Root    302 :    11.356025178677430
 Root    303 :    11.364655387216680
 Root    304 :    11.373611378339340
 Root    305 :    11.378166895650310
 Root    306 :    11.385891884687280
 Root    307 :    11.398921011775050
 Root    308 :    11.408298047901620
 Root    309 :    11.415789146074120
 Root    310 :    11.434932597640500
 Root    311 :    11.442196008792740
 Root    312 :    11.466561518482690
 Root    313 :    11.474408001220480
 Root    314 :    11.488262496296410
 Root    315 :    11.515420239093300
 Root    316 :    11.693611200201090
 Root    317 :    11.891942332930000
 Root    318 :    12.067641464634290
 Root    319 :    12.275146967007690
 Root    320 :    12.578235020139710
 Iteration     2 Dimension   480 NMult   320 NNew    160
 CISAX will form   160 AO SS matrices at one time.
 NMat=   160 NSing=   160 JSym2X= 0.
 Root      1 not converged, maximum delta is    0.146957254749873
 Root      2 not converged, maximum delta is    0.187076446397621
 Root      3 not converged, maximum delta is    0.221784828020187
 New state      4 was old state      5
 Root      4 not converged, maximum delta is    0.242104877705832
 New state      5 was old state      4
 Root      5 not converged, maximum delta is    0.172330763815317
 Root      6 not converged, maximum delta is    0.064194477511617
 Root      7 not converged, maximum delta is    0.162427789358633
 Root      8 not converged, maximum delta is    0.331787741767437
 Root      9 not converged, maximum delta is    0.230063031854385
 Root     10 not converged, maximum delta is    0.115731046753122
 Root     11 not converged, maximum delta is    0.392740220008158
 Root     12 not converged, maximum delta is    0.332219995233876
 Root     13 not converged, maximum delta is    0.408011099155027
 Root     14 not converged, maximum delta is    0.612368312675244
 Root     15 not converged, maximum delta is    0.350358780642829
 New state     16 was old state     19
 Root     16 not converged, maximum delta is    0.519653580338076
 New state     17 was old state     16
 Root     17 not converged, maximum delta is    0.272265252863132
 Root     18 not converged, maximum delta is    0.398817405032066
 New state     19 was old state     17
 Root     19 not converged, maximum delta is    0.203646920868482
 New state     20 was old state     23
 Root     20 not converged, maximum delta is    0.420305321375156
 New state     21 was old state     20
 Root     21 not converged, maximum delta is    0.180187160563095
 New state     22 was old state     21
 Root     22 not converged, maximum delta is    0.384071292527705
 New state     23 was old state     22
 Root     23 not converged, maximum delta is    0.337738837642318
 New state     24 was old state     30
 Root     24 not converged, maximum delta is    0.509538138936714
 New state     25 was old state     24
 Root     25 not converged, maximum delta is    0.115211180433178
 New state     26 was old state     25
 Root     26 not converged, maximum delta is    0.219019612662111
 New state     27 was old state     26
 Root     27 not converged, maximum delta is    0.315724273897826
 Root     28 not converged, maximum delta is    0.252768890148531
 New state     29 was old state     27
 Root     29 not converged, maximum delta is    0.271674068249397
 New state     30 was old state     29
 Root     30 not converged, maximum delta is    0.082115007194853
 New state     31 was old state     35
 Root     31 not converged, maximum delta is    0.394710412570867
 New state     32 was old state     31
 Root     32 not converged, maximum delta is    0.198004061229823
 Root     33 not converged, maximum delta is    0.505251490616553
 New state     34 was old state     32
 Root     34 not converged, maximum delta is    0.215023980025684
 New state     35 was old state     37
 Root     35 not converged, maximum delta is    0.367256700008298
 New state     36 was old state     34
 Root     36 not converged, maximum delta is    0.527832405712767
 New state     37 was old state     36
 Root     37 not converged, maximum delta is    0.321012117580994
 Root     38 not converged, maximum delta is    0.087973034807924
 Root     39 not converged, maximum delta is    0.413651306035024
 Root     40 not converged, maximum delta is    0.163062263565639
 Root     41 not converged, maximum delta is    0.176736234281884
 Root     42 not converged, maximum delta is    0.254313591173725
 Root     43 not converged, maximum delta is    0.122415774319463
 Root     44 not converged, maximum delta is    0.455987238028888
 Root     45 not converged, maximum delta is    0.368817865463330
 Root     46 not converged, maximum delta is    0.125379040847963
 New state     47 was old state     48
 Root     47 not converged, maximum delta is    0.397277764691689
 New state     48 was old state     47
 Root     48 not converged, maximum delta is    0.223948309729692
 Root     49 not converged, maximum delta is    0.122491786347555
 Root     50 not converged, maximum delta is    0.371662517367418
 Root     51 not converged, maximum delta is    0.218315965695436
 Root     52 not converged, maximum delta is    0.163266328573556
 Root     53 not converged, maximum delta is    0.162939431169820
 Root     54 not converged, maximum delta is    0.282504181827545
 Root     55 not converged, maximum delta is    0.284702400583568
 New state     56 was old state     57
 Root     56 not converged, maximum delta is    0.207320859385448
 New state     57 was old state     56
 Root     57 not converged, maximum delta is    0.211146938064566
 Root     58 not converged, maximum delta is    0.271759764580683
 Root     59 not converged, maximum delta is    0.231559812075109
 Root     60 not converged, maximum delta is    0.230848510582029
 Root     61 not converged, maximum delta is    0.342066438320100
 New state     62 was old state     66
 Root     62 not converged, maximum delta is    0.356199310479025
 Root     63 not converged, maximum delta is    0.248853613577896
 Root     64 not converged, maximum delta is    0.285122351746967
 New state     65 was old state     62
 Root     65 not converged, maximum delta is    0.393102465427928
 New state     66 was old state     65
 Root     66 not converged, maximum delta is    0.595170902403027
 Root     67 not converged, maximum delta is    0.530873189742289
 No map to state     68
 Root     69 not converged, maximum delta is    0.195157027137917
 New state     70 was old state     68
 Root     70 not converged, maximum delta is    0.234327950286710
 Root     71 not converged, maximum delta is    0.204101190511217
 Root     72 not converged, maximum delta is    0.283311162485772
 New state     73 was old state     75
 Root     73 not converged, maximum delta is    0.353432821794300
 New state     74 was old state     73
 Root     74 not converged, maximum delta is    0.289743986540854
 New state     75 was old state     74
 Root     75 not converged, maximum delta is    0.169450321846997
 New state     76 was old state     77
 Root     76 not converged, maximum delta is    0.388938748458572
 New state     77 was old state     76
 Root     77 not converged, maximum delta is    0.352151894461892
 New state     78 was old state     80
 Root     78 not converged, maximum delta is    0.358574756692482
 New state     79 was old state     78
 Root     79 not converged, maximum delta is    0.193865114467502
 New state     80 was old state     81
 Root     80 not converged, maximum delta is    0.220330357908277
 Excitation Energies [eV] at current iteration:
 Root      1 :     5.106179847716960   Change is   -0.051643548482428
 Root      2 :     5.186530689031412   Change is   -0.052713104814710
 Root      3 :     5.341316277980575   Change is   -0.072169795824173
 Root      4 :     5.539441087611362   Change is   -0.345752454117706
 Root      5 :     5.645216473634354   Change is    0.003625332727708
 Root      6 :     5.963584650338423   Change is   -0.015402566289062
 Root      7 :     6.197514920142954   Change is   -0.208813611180035
 Root      8 :     6.341681028776933   Change is   -0.223975451542792
 Root      9 :     6.515742961813206   Change is   -0.140584690011192
 Root     10 :     6.629102963228888   Change is   -0.044085847467514
 Root     11 :     6.703594594590409   Change is   -0.105757147855114
 Root     12 :     6.712850090442956   Change is   -0.247738749180979
 Root     13 :     6.851106115239437   Change is   -0.137360139135971
 Root     14 :     6.948052112893475   Change is   -0.133689903788219
 Root     15 :     7.053312884827714   Change is   -0.040868637217732
 Root     16 :     7.066477492148081   Change is   -0.221045473501200
 Root     17 :     7.124089847269382   Change is   -0.007557116755982
 Root     18 :     7.139945143339425   Change is   -0.129720450599938
 Root     19 :     7.196808815598592   Change is   -0.043338180977084
 Root     20 :     7.249093951617522   Change is   -0.219278246973907
 Root     21 :     7.274188092633806   Change is   -0.049413742551250
 Root     22 :     7.306051621693130   Change is   -0.038145552890707
 Root     23 :     7.341782311714419   Change is   -0.069666629575944
 Root     24 :     7.362825123225107   Change is   -0.302802041466703
 Root     25 :     7.489057080757481   Change is   -0.009203127521401
 Root     26 :     7.546020334768096   Change is   -0.008182137655024
 Root     27 :     7.564183919354388   Change is   -0.008301812640968
 Root     28 :     7.568101120353680   Change is   -0.014350574304632
 Root     29 :     7.577996049130330   Change is   -0.003447284436984
 Root     30 :     7.602699577389870   Change is   -0.016822852837140
 Root     31 :     7.647117939357098   Change is   -0.187024493192913
 Root     32 :     7.682486022809544   Change is   -0.021456476401270
 Root     33 :     7.709467868169008   Change is   -0.057815075701888
 Root     34 :     7.717477143375511   Change is   -0.033212985844344
 Root     35 :     7.758121289105269   Change is   -0.121253829350602
 Root     36 :     7.768073953512250   Change is   -0.038558245451490
 Root     37 :     7.778510569719615   Change is   -0.077404299962739
 Root     38 :     7.859188883761372   Change is   -0.070988438035852
 Root     39 :     7.885217129284885   Change is   -0.051022262874218
 Root     40 :     7.927186848343921   Change is   -0.031775846618723
 Root     41 :     7.963942150008133   Change is   -0.032170571678983
 Root     42 :     7.983533381220618   Change is   -0.039559044515697
 Root     43 :     8.028055360234891   Change is   -0.009938118048028
 Root     44 :     8.033133998695730   Change is   -0.049785045155886
 Root     45 :     8.050979503063965   Change is   -0.043650141268603
 Root     46 :     8.081685712867067   Change is   -0.043949413834734
 Root     47 :     8.162588097075991   Change is   -0.064567354778276
 Root     48 :     8.171947584413148   Change is   -0.000139393915259
 Root     49 :     8.209467093869462   Change is   -0.056247502290111
 Root     50 :     8.254311211931451   Change is   -0.031700683339119
 Root     51 :     8.259252339209629   Change is   -0.032235236428176
 Root     52 :     8.285768106663788   Change is   -0.019531369175786
 Root     53 :     8.317750610304167   Change is   -0.023252801387627
 Root     54 :     8.324534074848977   Change is   -0.022854769097444
 Root     55 :     8.333615900915992   Change is   -0.022215074243529
 Root     56 :     8.341586609637600   Change is   -0.049865348296578
 Root     57 :     8.349793627134227   Change is   -0.032203909998875
 Root     58 :     8.387796544380841   Change is   -0.063529748092151
 Root     59 :     8.427105925348179   Change is   -0.065201898004094
 Root     60 :     8.485537123161938   Change is   -0.014318922246518
 Root     61 :     8.507364157201122   Change is   -0.091018378476580
 Root     62 :     8.561345851902741   Change is   -0.116167044759953
 Root     63 :     8.601382895259560   Change is   -0.034172304941356
 Root     64 :     8.616021048069909   Change is   -0.029514595861813
 Root     65 :     8.626796992268710   Change is   -0.001939364425315
 Root     66 :     8.627220383053647   Change is   -0.031051998042268
 Root     67 :     8.638316852925898   Change is   -0.057997569468415
 Root     68 :     8.651603035542919
 Root     69 :     8.682790697322757   Change is   -0.042845386528873
 Root     70 :     8.689636342701991   Change is   -0.024081952856241
 Root     71 :     8.736567448089373   Change is   -0.034353573849594
 Root     72 :     8.741585328752389   Change is   -0.049023522221890
 Root     73 :     8.763881898564657   Change is   -0.065974233144776
 Root     74 :     8.775830212854219   Change is   -0.034390854694400
 Root     75 :     8.794258023310908   Change is   -0.028528373185167
 Root     76 :     8.815232047796416   Change is   -0.051823817645203
 Root     77 :     8.821311664182151   Change is   -0.032409554310124
 Root     78 :     8.834625882742408   Change is   -0.069420547409687
 Root     79 :     8.842474635271554   Change is   -0.036252399489281
 Root     80 :     8.855884256297575   Change is   -0.067768724515702
 Iteration     3 Dimension   640 NMult   480 NNew    160
 CISAX will form   160 AO SS matrices at one time.
 NMat=   160 NSing=   160 JSym2X= 0.
 Root      1 not converged, maximum delta is    0.001947020568196
 Root      2 not converged, maximum delta is    0.002457237466517
 Root      3 not converged, maximum delta is    0.009905750677862
 Root      4 not converged, maximum delta is    0.008944547213812
 Root      5 not converged, maximum delta is    0.005437001417126
 Root      6 not converged, maximum delta is    0.002627241277130
 Root      7 not converged, maximum delta is    0.002655126287374
 Root      8 not converged, maximum delta is    0.011679660285332
 Root      9 not converged, maximum delta is    0.009978652313096
 Root     10 not converged, maximum delta is    0.006146206146860
 Root     11 not converged, maximum delta is    0.019923756748012
 Root     12 not converged, maximum delta is    0.018642341634698
 Root     13 not converged, maximum delta is    0.027645301668814
 Root     14 not converged, maximum delta is    0.012938503333603
 Root     15 not converged, maximum delta is    0.007379311749213
 Root     16 not converged, maximum delta is    0.009034712254932
 Root     17 not converged, maximum delta is    0.029951969449063
 Root     18 not converged, maximum delta is    0.032832966533771
 Root     19 not converged, maximum delta is    0.013645931056160
 Root     20 not converged, maximum delta is    0.021874529259350
 Root     21 not converged, maximum delta is    0.018142004366741
 Root     22 not converged, maximum delta is    0.004479341384697
 Root     23 not converged, maximum delta is    0.011883429279220
 Root     24 not converged, maximum delta is    0.014093523376775
 Root     25 not converged, maximum delta is    0.003726383192555
 Root     26 not converged, maximum delta is    0.003392179733224
 Root     27 not converged, maximum delta is    0.008313031437358
 Root     28 not converged, maximum delta is    0.010300716129336
 Root     29 not converged, maximum delta is    0.003496584570871
 Root     30 not converged, maximum delta is    0.004343955358933
 Root     31 not converged, maximum delta is    0.006735293704395
 Root     32 not converged, maximum delta is    0.008188661755867
 Root     33 not converged, maximum delta is    0.006801534619136
 Root     34 not converged, maximum delta is    0.006689215723426
 Root     35 not converged, maximum delta is    0.009082660973814
 Root     36 not converged, maximum delta is    0.008181264423033
 Root     37 not converged, maximum delta is    0.002200614537385
 Root     38 not converged, maximum delta is    0.004549383318123
 Root     39 not converged, maximum delta is    0.005776181168435
 Root     40 not converged, maximum delta is    0.002606789811138
 Root     41 not converged, maximum delta is    0.003969196393234
 Root     42 not converged, maximum delta is    0.005364632386574
 Root     43 not converged, maximum delta is    0.003238374787456
 Root     44 not converged, maximum delta is    0.006102616970422
 Root     45 not converged, maximum delta is    0.003425706088223
 Root     46 not converged, maximum delta is    0.011803860170516
 Root     47 not converged, maximum delta is    0.039897885369241
 Root     48 not converged, maximum delta is    0.022616235035275
 Root     49 not converged, maximum delta is    0.001886275850100
 Root     50 not converged, maximum delta is    0.002384573837808
 Root     51 not converged, maximum delta is    0.003176853991243
 Root     52 not converged, maximum delta is    0.001970889499826
 Root     53 not converged, maximum delta is    0.007164648662595
 Root     54 not converged, maximum delta is    0.015418178044835
 Root     55 not converged, maximum delta is    0.004952187294775
 Root     56 not converged, maximum delta is    0.032781591953926
 Root     57 not converged, maximum delta is    0.020768715008298
 Root     58 not converged, maximum delta is    0.019352011515905
 Root     59 not converged, maximum delta is    0.016036042627835
 Root     60 not converged, maximum delta is    0.021333023338026
 Root     61 not converged, maximum delta is    0.034789320984478
 Root     62 not converged, maximum delta is    0.032652886598364
 Root     63 not converged, maximum delta is    0.020518148601308
 Root     64 not converged, maximum delta is    0.026948943848126
 Root     65 not converged, maximum delta is    0.217394601051431
 Root     66 not converged, maximum delta is    0.092619857975822
 Root     67 not converged, maximum delta is    0.027992475674982
 Root     68 not converged, maximum delta is    0.027669563910648
 Root     69 not converged, maximum delta is    0.037306710459080
 Root     70 not converged, maximum delta is    0.048085880501119
 Root     71 not converged, maximum delta is    0.035447601980244
[...]
    25  H   -0.000215   0.009344  -0.001759   0.008732  -0.054893   0.432303
    26  H   -0.004619  -0.060334   0.010602  -0.002339   0.012674  -0.057105
    27  H    0.000000   0.000003  -0.000018  -0.000208   0.000514  -0.000417
    28  H   -0.000000  -0.000000  -0.000002  -0.000006   0.000029   0.000003
    29  H   -0.000000   0.000000  -0.000005  -0.000057   0.000047   0.000003
    30  H    0.000000  -0.000000  -0.000001  -0.000003   0.000004   0.000000
    31  H    0.000000  -0.000001  -0.000024   0.000002   0.000056   0.000021
    32  H   -0.000005  -0.000065   0.001078   0.002366   0.000978  -0.000112
    33  H   -0.000000   0.000002  -0.000000  -0.000022  -0.000032   0.000002
    34  H   -0.000001   0.000012   0.000045   0.000093  -0.000030   0.000002
    35  H   -0.000000  -0.000001  -0.000027   0.000024   0.000000   0.000000
    36  H    0.000000  -0.000000   0.000006  -0.000007   0.000001  -0.000000
               7          8          9         10         11         12
     1  C   -0.071486  -0.000005  -0.000005  -0.000003  -0.000001   0.000002
     2  C    0.418422  -0.000308   0.000377  -0.000024  -0.000110  -0.000028
     3  C   -0.031430   0.002907  -0.001542   0.002028  -0.000417   0.000111
     4  C   -0.057169  -0.024690   0.013214   0.017952   0.007105  -0.006305
     5  C    0.026595   0.307171  -0.076471  -0.093265  -0.102314   0.010388
     6  C    0.393348  -0.021848   0.009016   0.006809   0.019609  -0.000279
     7  C    5.076591   0.005282  -0.000484  -0.000485   0.003285   0.000049
     8  S    0.005282  13.418932   0.303547   0.552182   0.629745  -0.005728
     9  N   -0.000484   0.303547   6.707717  -0.052861  -0.051132   0.336560
    10  O   -0.000485   0.552182  -0.052861   8.076417  -0.044902  -0.005978
    11  O    0.003285   0.629745  -0.051132  -0.044902   7.965600  -0.001227
    12  C    0.000049  -0.005728   0.336560  -0.005978  -0.001227   4.354232
    13  N   -0.000091   0.005876  -0.104123  -0.014282  -0.000534   0.391263
    14  C    0.000001   0.001033   0.005035   0.003049   0.000007  -0.042864
    15  C    0.000006  -0.000210  -0.001233  -0.000263  -0.000001  -0.007661
    16  O   -0.000014   0.000275  -0.099860  -0.000207  -0.000194   0.692071
    17  H   -0.000085  -0.015108   0.334700   0.002879   0.001517  -0.021069
    18  C    0.000013  -0.000003   0.000114   0.000198   0.000000   0.001357
    19  C   -0.000003   0.000003  -0.000007   0.000003   0.000000  -0.000063
    20  H    0.007599   0.000001   0.000000   0.000000   0.000000  -0.000000
    21  H   -0.002199  -0.000002   0.000000  -0.000000  -0.000000   0.000000
    22  H   -0.003519   0.000001  -0.000000   0.000000   0.000000  -0.000000
    23  H    0.012596  -0.000112   0.000009  -0.000039   0.000006   0.000007
    24  H   -0.001809  -0.003886   0.001035   0.015788   0.000429  -0.000469
    25  H   -0.051437  -0.000846   0.000040   0.000601   0.013013  -0.000123
    26  H    0.441275  -0.000171   0.000020   0.000005  -0.000031  -0.000003
    27  H    0.000037  -0.004291  -0.001805   0.018191   0.000201  -0.021249
    28  H    0.000000  -0.000042   0.001437  -0.000059   0.000002  -0.005287
    29  H   -0.000000   0.000001   0.000152   0.000075   0.000000   0.007351
    30  H   -0.000000   0.000002   0.000004   0.000001  -0.000000   0.000363
    31  H   -0.000005  -0.000004   0.000044   0.000014   0.000000   0.002788
    32  H    0.000017   0.000090  -0.000096  -0.000178  -0.000000   0.000875
    33  H   -0.000001   0.000013  -0.000003   0.000002   0.000000  -0.000088
    34  H   -0.000003   0.000001   0.000000   0.000000   0.000000  -0.000038
    35  H   -0.000000   0.000000  -0.000000  -0.000000  -0.000000   0.000006
    36  H    0.000000  -0.000000  -0.000000  -0.000000  -0.000000   0.000004
              13         14         15         16         17         18
     1  C   -0.000001   0.000000   0.000000   0.000000   0.000000   0.000001
     2  C    0.000062  -0.000001   0.000004  -0.000004   0.000022  -0.000049
     3  C   -0.000409   0.000037   0.000018   0.000030   0.000012  -0.000198
     4  C    0.004906  -0.000466   0.000654  -0.000238   0.000525  -0.003418
     5  C   -0.004919   0.000429  -0.000110  -0.000158   0.001393   0.000108
     6  C    0.000272  -0.000048  -0.000026  -0.000078  -0.000809   0.000004
     7  C   -0.000091   0.000001   0.000006  -0.000014  -0.000085   0.000013
     8  S    0.005876   0.001033  -0.000210   0.000275  -0.015108  -0.000003
     9  N   -0.104123   0.005035  -0.001233  -0.099860   0.334700   0.000114
    10  O   -0.014282   0.003049  -0.000263  -0.000207   0.002879   0.000198
    11  O   -0.000534   0.000007  -0.000001  -0.000194   0.001517   0.000000
    12  C    0.391263  -0.042864  -0.007661   0.692071  -0.021069   0.001357
    13  N    6.661389   0.253362  -0.083394  -0.113202   0.008316   0.015610
    14  C    0.253362   4.862389   0.288698   0.000271  -0.000230  -0.047747
    15  C   -0.083394   0.288698   5.147058  -0.006687   0.000095   0.277752
    16  O   -0.113202   0.000271  -0.006687   7.868699   0.009160   0.000296
    17  H    0.008316  -0.000230   0.000095   0.009160   0.434687  -0.000014
    18  C    0.015610  -0.047747   0.277752   0.000296  -0.000014   5.019616
    19  C   -0.000795   0.010858  -0.049769   0.000027   0.000000   0.301072
    20  H    0.000000  -0.000000   0.000000  -0.000000   0.000000  -0.000001
    21  H    0.000000   0.000000   0.000000  -0.000000  -0.000000  -0.000000
    22  H   -0.000000  -0.000000  -0.000000   0.000000   0.000000   0.000000
    23  H   -0.000030  -0.000002   0.000011   0.000000   0.000000   0.000085
    24  H    0.003682  -0.000006  -0.000829  -0.000052  -0.000094   0.000043
    25  H    0.000014  -0.000002  -0.000000   0.000003   0.000449   0.000000
    26  H   -0.000000   0.000000  -0.000000  -0.000000  -0.000010  -0.000000
    27  H    0.354309  -0.024040   0.001099   0.004012  -0.000424   0.001749
    28  H   -0.032474   0.419100  -0.052964   0.014910  -0.000089   0.010817
    29  H   -0.042289   0.426211  -0.061930   0.001353   0.000010  -0.006597
    30  H    0.007052  -0.036397   0.396809  -0.000129  -0.000001  -0.041077
    31  H   -0.001854  -0.035818   0.400398   0.006028  -0.000012  -0.033254
    32  H    0.006171  -0.008432  -0.048737  -0.000138   0.000002   0.408376
    33  H    0.000909   0.001529  -0.051671  -0.000020   0.000000   0.408419
    34  H    0.000281  -0.000367  -0.005670  -0.000019   0.000000  -0.040569
    35  H    0.000082  -0.000806   0.011936  -0.000000  -0.000000  -0.047351
    36  H   -0.000042   0.000157  -0.006431   0.000000  -0.000000  -0.041231
              19         20         21         22         23         24
     1  C   -0.000000   0.429533   0.392860   0.415685  -0.008948  -0.000279
     2  C   -0.000003  -0.063091  -0.028536  -0.046569  -0.050311   0.007543
     3  C   -0.000146  -0.004009  -0.003898   0.001893   0.426618  -0.050895
     4  C    0.000407   0.002230  -0.001006  -0.000736  -0.048830   0.418117
     5  C   -0.000020  -0.000087   0.000295   0.000144   0.009879  -0.040137
     6  C    0.000001  -0.000292  -0.000192   0.000245  -0.002787   0.008379
     7  C   -0.000003   0.007599  -0.002199  -0.003519   0.012596  -0.001809
     8  S    0.000003   0.000001  -0.000002   0.000001  -0.000112  -0.003886
     9  N   -0.000007   0.000000   0.000000  -0.000000   0.000009   0.001035
    10  O    0.000003   0.000000  -0.000000   0.000000  -0.000039   0.015788
    11  O    0.000000   0.000000  -0.000000   0.000000   0.000006   0.000429
    12  C   -0.000063  -0.000000   0.000000  -0.000000   0.000007  -0.000469
    13  N   -0.000795   0.000000   0.000000  -0.000000  -0.000030   0.003682
    14  C    0.010858  -0.000000   0.000000  -0.000000  -0.000002  -0.000006
    15  C   -0.049769   0.000000   0.000000  -0.000000   0.000011  -0.000829
    16  O    0.000027  -0.000000  -0.000000   0.000000   0.000000  -0.000052
    17  H    0.000000   0.000000  -0.000000   0.000000   0.000000  -0.000094
    18  C    0.301072  -0.000001  -0.000000   0.000000   0.000085   0.000043
    19  C    4.918578   0.000000   0.000000   0.000000   0.000005   0.000006
    20  H    0.000000   0.552286  -0.023326  -0.023875   0.003452  -0.000033
    21  H    0.000000  -0.023326   0.566403  -0.031722   0.000207   0.000007
    22  H    0.000000  -0.023875  -0.031722   0.560669   0.000028   0.000015
    23  H    0.000005   0.003452   0.000207   0.000028   0.550048  -0.006168
    24  H    0.000006  -0.000033   0.000007   0.000015  -0.006168   0.506211
    25  H   -0.000000   0.000012  -0.000002  -0.000014   0.000061  -0.000183
    26  H   -0.000000   0.000053   0.000489   0.000965  -0.000228   0.000068
    27  H    0.000039  -0.000000   0.000000  -0.000000  -0.000005  -0.000297
    28  H   -0.000495   0.000000   0.000000  -0.000000  -0.000000   0.000009
    29  H   -0.000675  -0.000000  -0.000000   0.000000  -0.000000   0.000067
    30  H   -0.003179  -0.000000  -0.000000   0.000000   0.000000   0.000005
    31  H   -0.007551  -0.000000  -0.000000   0.000000  -0.000004   0.000091
    32  H   -0.036198   0.000000   0.000000  -0.000000   0.000101   0.001160
    33  H   -0.038513   0.000000   0.000000  -0.000000  -0.000009   0.000202
    34  H    0.409795   0.000001   0.000000  -0.000000  -0.000022   0.000055
    35  H    0.414133   0.000000   0.000000  -0.000000   0.000030   0.000011
    36  H    0.408915  -0.000000   0.000000  -0.000000   0.000002  -0.000004
              25         26         27         28         29         30
     1  C   -0.000215  -0.004619   0.000000  -0.000000  -0.000000   0.000000
     2  C    0.009344  -0.060334   0.000003  -0.000000   0.000000  -0.000000
     3  C   -0.001759   0.010602  -0.000018  -0.000002  -0.000005  -0.000001
     4  C    0.008732  -0.002339  -0.000208  -0.000006  -0.000057  -0.000003
     5  C   -0.054893   0.012674   0.000514   0.000029   0.000047   0.000004
     6  C    0.432303  -0.057105  -0.000417   0.000003   0.000003   0.000000
     7  C   -0.051437   0.441275   0.000037   0.000000  -0.000000  -0.000000
     8  S   -0.000846  -0.000171  -0.004291  -0.000042   0.000001   0.000002
     9  N    0.000040   0.000020  -0.001805   0.001437   0.000152   0.000004
    10  O    0.000601   0.000005   0.018191  -0.000059   0.000075   0.000001
    11  O    0.013013  -0.000031   0.000201   0.000002   0.000000  -0.000000
    12  C   -0.000123  -0.000003  -0.021249  -0.005287   0.007351   0.000363
    13  N    0.000014  -0.000000   0.354309  -0.032474  -0.042289   0.007052
    14  C   -0.000002   0.000000  -0.024040   0.419100   0.426211  -0.036397
    15  C   -0.000000  -0.000000   0.001099  -0.052964  -0.061930   0.396809
    16  O    0.000003  -0.000000   0.004012   0.014910   0.001353  -0.000129
    17  H    0.000449  -0.000010  -0.000424  -0.000089   0.000010  -0.000001
    18  C    0.000000  -0.000000   0.001749   0.010817  -0.006597  -0.041077
    19  C   -0.000000  -0.000000   0.000039  -0.000495  -0.000675  -0.003179
    20  H    0.000012   0.000053  -0.000000   0.000000  -0.000000  -0.000000
    21  H   -0.000002   0.000489   0.000000   0.000000  -0.000000  -0.000000
    22  H   -0.000014   0.000965  -0.000000  -0.000000   0.000000   0.000000
    23  H    0.000061  -0.000228  -0.000005  -0.000000  -0.000000   0.000000
    24  H   -0.000183   0.000068  -0.000297   0.000009   0.000067   0.000005
    25  H    0.509507  -0.007122  -0.000018   0.000000   0.000000   0.000000
    26  H   -0.007122   0.549929  -0.000000  -0.000000  -0.000000  -0.000000
    27  H   -0.000018  -0.000000   0.429629   0.003833  -0.008292  -0.000335
    28  H    0.000000  -0.000000   0.003833   0.539893  -0.021552  -0.003233
    29  H    0.000000  -0.000000  -0.008292  -0.021552   0.579638  -0.000711
    30  H    0.000000  -0.000000  -0.000335  -0.003233  -0.000711   0.615540
    31  H    0.000000  -0.000000   0.000290  -0.001763   0.006914  -0.027645
    32  H   -0.000001   0.000000  -0.001587  -0.000208   0.000908   0.009532
    33  H    0.000000  -0.000000   0.000049   0.000347   0.004778  -0.006450
    34  H    0.000000  -0.000000   0.000005   0.000038   0.000015  -0.000055
    35  H    0.000000  -0.000000  -0.000005   0.000018   0.000025  -0.000118
    36  H   -0.000000   0.000000  -0.000006  -0.000033   0.000068   0.004718
              31         32         33         34         35         36
     1  C    0.000000  -0.000005  -0.000000  -0.000001  -0.000000   0.000000
     2  C   -0.000001  -0.000065   0.000002   0.000012  -0.000001  -0.000000
     3  C   -0.000024   0.001078  -0.000000   0.000045  -0.000027   0.000006
     4  C    0.000002   0.002366  -0.000022   0.000093   0.000024  -0.000007
     5  C    0.000056   0.000978  -0.000032  -0.000030   0.000000   0.000001
     6  C    0.000021  -0.000112   0.000002   0.000002   0.000000  -0.000000
     7  C   -0.000005   0.000017  -0.000001  -0.000003  -0.000000   0.000000
     8  S   -0.000004   0.000090   0.000013   0.000001   0.000000  -0.000000
     9  N    0.000044  -0.000096  -0.000003   0.000000  -0.000000  -0.000000
    10  O    0.000014  -0.000178   0.000002   0.000000  -0.000000  -0.000000
    11  O    0.000000  -0.000000   0.000000   0.000000  -0.000000  -0.000000
    12  C    0.002788   0.000875  -0.000088  -0.000038   0.000006   0.000004
    13  N   -0.001854   0.006171   0.000909   0.000281   0.000082  -0.000042
    14  C   -0.035818  -0.008432   0.001529  -0.000367  -0.000806   0.000157
    15  C    0.400398  -0.048737  -0.051671  -0.005670   0.011936  -0.006431
    16  O    0.006028  -0.000138  -0.000020  -0.000019  -0.000000   0.000000
    17  H   -0.000012   0.000002   0.000000   0.000000  -0.000000  -0.000000
    18  C   -0.033254   0.408376   0.408419  -0.040569  -0.047351  -0.041231
    19  C   -0.007551  -0.036198  -0.038513   0.409795   0.414133   0.408915
    20  H   -0.000000   0.000000   0.000000   0.000001   0.000000  -0.000000
    21  H   -0.000000   0.000000   0.000000   0.000000   0.000000   0.000000
    22  H    0.000000  -0.000000  -0.000000  -0.000000  -0.000000  -0.000000
    23  H   -0.000004   0.000101  -0.000009  -0.000022   0.000030   0.000002
    24  H    0.000091   0.001160   0.000202   0.000055   0.000011  -0.000004
    25  H    0.000000  -0.000001   0.000000   0.000000   0.000000  -0.000000
    26  H   -0.000000   0.000000  -0.000000  -0.000000  -0.000000   0.000000
    27  H    0.000290  -0.001587   0.000049   0.000005  -0.000005  -0.000006
    28  H   -0.001763  -0.000208   0.000347   0.000038   0.000018  -0.000033
    29  H    0.006914   0.000908   0.004778   0.000015   0.000025   0.000068
    30  H   -0.027645   0.009532  -0.006450  -0.000055  -0.000118   0.004718
    31  H    0.577422  -0.005635   0.008413   0.004931  -0.000140   0.000247
    32  H   -0.005635   0.629726  -0.039758  -0.007436  -0.004903   0.009290
    33  H    0.008413  -0.039758   0.632487   0.008831  -0.004670  -0.006003
    34  H    0.004931  -0.007436   0.008831   0.582243  -0.027289  -0.029918
    35  H   -0.000140  -0.004903  -0.004670  -0.027289   0.576673  -0.026886
    36  H    0.000247   0.009290  -0.006003  -0.029918  -0.026886   0.583248
 Mulliken charges:
               1
     1  C   -0.359139
     2  C    0.169832
     3  C   -0.169143
     4  C   -0.128182
     5  C    0.003790
     6  C   -0.154162
     7  C   -0.164897
     8  S    0.850189
     9  N   -0.323399
    10  O   -0.483651
    11  O   -0.439655
    12  C    0.321033
    13  N   -0.315117
    14  C   -0.074940
    15  C   -0.146954
    16  O   -0.376137
    17  H    0.244176
    18  C   -0.184122
    19  C   -0.326425
    20  H    0.119547
    21  H    0.130622
    22  H    0.126789
    23  H    0.114349
    24  H    0.142221
    25  H    0.142535
    26  H    0.115881
    27  H    0.249036
    28  H    0.127772
    29  H    0.114491
    30  H    0.085304
    31  H    0.106053
    32  H    0.082819
    33  H    0.081255
    34  H    0.105067
    35  H    0.109259
    36  H    0.103906
 Sum of Mulliken charges =  -0.00000
 Mulliken charges with hydrogens summed into heavy atoms:
               1
     1  C    0.017819
     2  C    0.169832
     3  C   -0.054794
     4  C    0.014039
     5  C    0.003790
     6  C   -0.011628
     7  C   -0.049016
     8  S    0.850189
     9  N   -0.079223
    10  O   -0.483651
    11  O   -0.439655
    12  C    0.321033
    13  N   -0.066081
    14  C    0.167323
    15  C    0.044403
    16  O   -0.376137
    18  C   -0.020048
    19  C   -0.008193
 Electronic spatial extent (au):  <R**2>=           5853.1387
 Charge=             -0.0000 electrons
 Dipole moment (field-independent basis, Debye):
    X=              1.6399    Y=              4.6498    Z=             -0.1058  Tot=              4.9316
 Quadrupole moment (field-independent basis, Debye-Ang):
   XX=           -102.4875   YY=           -119.8491   ZZ=           -123.7649
   XY=              5.0281   XZ=             12.1975   YZ=             -4.0181
 Traceless Quadrupole moment (field-independent basis, Debye-Ang):
   XX=             12.8797   YY=             -4.4819   ZZ=             -8.3978
   XY=              5.0281   XZ=             12.1975   YZ=             -4.0181
 Octapole moment (field-independent basis, Debye-Ang**2):
  XXX=              5.8238  YYY=              9.8051  ZZZ=            -10.7690  XYY=              4.1502
  XXY=             22.5483  XXZ=              1.5377  XZZ=             16.3335  YZZ=              2.4133
  YYZ=             10.7660  XYZ=            -13.7504
 Hexadecapole moment (field-independent basis, Debye-Ang**3):
 XXXX=          -4220.9601 YYYY=          -2831.6502 ZZZZ=           -708.8471 XXXY=             59.6003
 XXXZ=             97.0910 YYYX=            105.0335 YYYZ=            -46.8818 ZZZX=             42.0906
 ZZZY=             14.3582 XXYY=          -1195.1241 XXZZ=           -879.5676 YYZZ=           -571.8257
 XXYZ=             27.3117 YYXZ=             28.0114 ZZXY=            -26.2633
 N-N= 1.530117528493D+03 E-N=-5.879334174129D+03  KE= 1.197180867305D+03
 Leave Link  601 at Wed Sep 27 17:03:45 2017, MaxMem=  1879048192 cpu:         4.5
 (Enter /net/software/local/gaussian09/E.01/g09/l9999.exe)
 1\1\GINC-P1928\SP\RB3LYP TD-FC\def2TZVP\C12H18N2O3S1\PLGJAWICZUK\27-Se
 p-2017\0\\#P td=(singlets,nstates=80) B3LYP/Def2TZVP\\conflex\\0,1\C,0
 ,4.041534,2.976423,0.565596\C,0,3.191209,1.769721,0.275567\C,0,2.08922
 4,1.850461,-0.575069\C,0,1.312761,0.733468,-0.857203\C,0,1.6395,-0.486
 846,-0.278701\C,0,2.742226,-0.596109,0.566361\C,0,3.504083,0.528104,0.
 838232\S,0,0.651699,-1.925307,-0.608414\N,0,-0.412197,-2.064651,0.6600
 01\O,0,-0.134122,-1.662484,-1.787087\O,0,1.500586,-3.076293,-0.507116\
 C,0,-1.639875,-1.403981,0.949894\N,0,-2.263624,-0.81809,-0.092486\C,0,
 -3.57975,-0.207498,0.064955\C,0,-3.539731,1.279315,0.422489\O,0,-2.051
 584,-1.436138,2.093129\H,0,-0.020413,-2.508456,1.479731\C,0,-2.962401,
 2.175959,-0.671906\C,0,-2.928036,3.651795,-0.279337\H,0,3.563923,3.893
 244,0.221017\H,0,5.011122,2.897754,0.066484\H,0,4.236526,3.074488,1.63
 5164\H,0,1.834045,2.799924,-1.029715\H,0,0.472009,0.803988,-1.53237\H,
 0,3.007413,-1.555249,0.98984\H,0,4.362001,0.439806,1.494189\H,0,-1.882
 643,-0.971371,-1.013955\H,0,-4.110559,-0.756215,0.842644\H,0,-4.118117
 ,-0.354352,-0.874265\H,0,-4.563994,1.595478,0.647928\H,0,-2.968645,1.3
 9999,1.347499\H,0,-1.948956,1.843158,-0.915547\H,0,-3.553278,2.055252,
 -1.586806\H,0,-2.315093,3.807445,0.611764\H,0,-2.514481,4.268102,-1.08
 0129\H,0,-3.930805,4.025559,-0.058142\\Version=ES64L-G09RevE.01\State=
 1-A\HF=-1201.8535308\RMSD=4.217e-09\PG=C01 [X(C12H18N2O3S1)]\\@


 REVOLUTIONS HAVE NEVER LIGHTENED THE BURDEN OF TYRANNY:
 THEY HAVE MERELY SHIFTED IT TO OTHER SHOULDERS.
                                   -- G. B. SHAW (1903)
 Job cpu time:       0 days 20 hours  1 minutes 11.1 seconds.
 File lengths (MBytes):  RWF=   5542 Int=      0 D2E=      0 Chk=   1011 Scr=      1
 Normal termination of Gaussian 09 at Wed Sep 27 17:03:47 2017.
