 Entering Gaussian System, Link 0=g09.bin
 Initial command:
 /net/software/local/gaussian09/E.01/g09/l1.exe "/net/scratch/people/plgjawiczuk/slurm_jobdir/7288964/Gau-20236.inp" -scrdir="/net/scratch/people/plgjawiczuk/slurm_jobdir/7288964/"
 Entering Link 1 = /net/software/local/gaussian09/E.01/g09/l1.exe PID=     20249.
  
 Copyright (c) 1988,1990,1992,1993,1995,1998,2003,2009,2015,
            Gaussian, Inc.  All Rights Reserved.
  
 This is part of the Gaussian(R) 09 program.  It is based on
 the Gaussian(R) 03 system (copyright 2003, Gaussian, Inc.),
 the Gaussian(R) 98 system (copyright 1998, Gaussian, Inc.),
 the Gaussian(R) 94 system (copyright 1995, Gaussian, Inc.),
 the Gaussian 92(TM) system (copyright 1992, Gaussian, Inc.),
 the Gaussian 90(TM) system (copyright 1990, Gaussian, Inc.),
 the Gaussian 88(TM) system (copyright 1988, Gaussian, Inc.),
 the Gaussian 86(TM) system (copyright 1986, Carnegie Mellon
 University), and the Gaussian 82(TM) system (copyright 1983,
 Carnegie Mellon University). Gaussian is a federally registered
 trademark of Gaussian, Inc.
  
 This software contains proprietary and confidential information,
 including trade secrets, belonging to Gaussian, Inc.
  
 This software is provided under written license and may be
 used, copied, transmitted, or stored only in accord with that
 written license.
  
 The following legend is applicable only to US Government
 contracts under FAR:
  
                    RESTRICTED RIGHTS LEGEND
  
 Use, reproduction and disclosure by the US Government is
 subject to restrictions as set forth in subparagraphs (a)
 and (c) of the Commercial Computer Software - Restricted
 Rights clause in FAR 52.227-19.
  
 Gaussian, Inc.
 340 Quinnipiac St., Bldg. 40, Wallingford CT 06492
  
  
 ---------------------------------------------------------------
 Warning -- This program may not be used in any manner that
 competes with the business of Gaussian, Inc. or will provide
 assistance to any competitor of Gaussian, Inc.  The licensee
 of this program is prohibited from giving any competitor of
 Gaussian, Inc. access to this program.  By using this program,
 the user acknowledges that Gaussian, Inc. is engaged in the
 business of creating and licensing software in the field of
 computational chemistry and represents and warrants to the
 licensee that it is not a competitor of Gaussian, Inc. and that
 it will not use this program in any manner prohibited above.
 ---------------------------------------------------------------
  

 Cite this work as:
 Gaussian 09, Revision E.01,
 M. J. Frisch, G. W. Trucks, H. B. Schlegel, G. E. Scuseria, 
 M. A. Robb, J. R. Cheeseman, G. Scalmani, V. Barone, B. Mennucci, 
 G. A. Petersson, H. Nakatsuji, M. Caricato, X. Li, H. P. Hratchian, 
 A. F. Izmaylov, J. Bloino, G. Zheng, J. L. Sonnenberg, M. Hada, 
 M. Ehara, K. Toyota, R. Fukuda, J. Hasegawa, M. Ishida, T. Nakajima, 
 Y. Honda, O. Kitao, H. Nakai, T. Vreven, J. A. Montgomery, Jr., 
 J. E. Peralta, F. Ogliaro, M. Bearpark, J. J. Heyd, E. Brothers, 
 K. N. Kudin, V. N. Staroverov, T. Keith, R. Kobayashi, J. Normand, 
 K. Raghavachari, A. Rendell, J. C. Burant, S. S. Iyengar, J. Tomasi, 
 M. Cossi, N. Rega, J. M. Millam, M. Klene, J. E. Knox, J. B. Cross, 
 V. Bakken, C. Adamo, J. Jaramillo, R. Gomperts, R. E. Stratmann, 
 O. Yazyev, A. J. Austin, R. Cammi, C. Pomelli, J. W. Ochterski, 
 R. L. Martin, K. Morokuma, V. G. Zakrzewski, G. A. Voth, 
 P. Salvador, J. J. Dannenberg, S. Dapprich, A. D. Daniels, 
 O. Farkas, J. B. Foresman, J. V. Ortiz, J. Cioslowski, 
 and D. J. Fox, Gaussian, Inc., Wallingford CT, 2013.
 
 ******************************************
 Gaussian 09:  ES64L-G09RevE.01 30-Nov-2015
                21-Sep-2017 
 ******************************************
 %mem=11264MB
 %rwf=.//30680.rwf,500GB
 %NProcShared=8
 Will use up to    8 processors via shared memory.
 %chk=Tolbutamid_c3.chk
 -----------------------------
 # opt freq=vcd B3LYP/Def2TZVP
 -----------------------------
 1/14=-1,18=20,19=15,26=3,38=1/1,3;
 2/9=110,12=2,17=6,18=5,40=1/2;
 3/5=44,7=101,11=2,16=1,25=1,30=1,71=1,74=-5/1,2,3;
 4//1;
 5/5=2,38=5/2;
 6/7=2,8=2,9=2,10=2,28=1/1;
 7//1,2,3,16;
 1/14=-1,18=20,19=15,26=3/3(2);
 2/9=110/2;
 99//99;
 2/9=110/2;
 3/5=44,7=101,11=2,16=1,25=1,30=1,71=1,74=-5/1,2,3;
 4/5=5,16=3,69=1/1;
 5/5=2,38=5/2;
 7//1,2,3,16;
 1/14=-1,18=20,19=15,26=3/3(-5);
 2/9=110/2;
 6/7=2,8=2,9=2,10=2,19=2,28=1/1;
 99/9=1/99;
 -------
 conflex
 -------
 Symbolic Z-matrix:
 Charge =  0 Multiplicity = 1
 C                     4.0697    2.4756    0.5215 
 C                     3.0885    1.3658    0.2792 
 C                     2.2872    1.3698   -0.8707 
 C                     1.3949    0.3246   -1.1159 
 C                     1.3054   -0.73     -0.2056 
 C                     2.1197   -0.7633    0.9297 
 C                     3.0099    0.2849    1.1678 
 S                     0.1727   -2.0657   -0.4949 
 N                    -0.9079   -1.876     0.7382 
 O                    -0.5179   -1.8074   -1.7423 
 O                     0.8864   -3.3004   -0.2575 
 C                    -1.905    -0.9264    0.8904 
 N                    -2.2787   -0.2318   -0.2184 
 C                    -3.3141    0.7776   -0.1936 
 C                    -2.7964    2.1376    0.2736 
 O                    -2.4127   -0.7792    1.9916 
 H                    -0.7242   -2.4528    1.5525 
 C                    -1.8294    2.7689   -0.7297 
 C                    -1.3241    4.1179   -0.2436 
 H                     3.6979    3.4211    0.1128 
 H                     5.0277    2.2376    0.0494 
 H                     4.2309    2.627     1.5941 
 H                     2.356     2.1893   -1.5836 
 H                     0.7828    0.3448   -2.0143 
 H                     2.0737   -1.5982    1.6248 
 H                     3.6459    0.2537    2.0505 
 H                    -1.8871   -0.5205   -1.1216 
 H                    -4.1131    0.4408    0.4764 
 H                    -3.7306    0.8471   -1.204 
 H                    -3.653     2.808     0.4136 
 H                    -2.3037    2.0373    1.2483 
 H                    -0.9724    2.1092   -0.8951 
 H                    -2.3295    2.8985   -1.6964 
 H                    -0.7878    4.0166    0.7054 
 H                    -0.6369    4.5515   -0.9769 
 H                    -2.1525    4.8184   -0.0981 
 

 GradGradGradGradGradGradGradGradGradGradGradGradGradGradGradGradGradGrad
 Berny optimization.
 Initialization pass.
                           ----------------------------
                           !    Initial Parameters    !
                           ! (Angstroms and Degrees)  !
 --------------------------                            --------------------------
 ! Name  Definition              Value          Derivative Info.                !
 --------------------------------------------------------------------------------
 ! R1    R(1,2)                  1.501          estimate D2E/DX2                !
 ! R2    R(1,20)                 1.0951         estimate D2E/DX2                !
 ! R3    R(1,21)                 1.0942         estimate D2E/DX2                !
 ! R4    R(1,22)                 1.0952         estimate D2E/DX2                !
 ! R5    R(2,3)                  1.4016         estimate D2E/DX2                !
 ! R6    R(2,7)                  1.4015         estimate D2E/DX2                !
 ! R7    R(3,4)                  1.396          estimate D2E/DX2                !
 ! R8    R(3,23)                 1.0884         estimate D2E/DX2                !
 ! R9    R(4,5)                  1.396          estimate D2E/DX2                !
 ! R10   R(4,24)                 1.0873         estimate D2E/DX2                !
 ! R11   R(5,6)                  1.3975         estimate D2E/DX2                !
 ! R12   R(5,8)                  1.775          estimate D2E/DX2                !
 ! R13   R(6,7)                  1.3957         estimate D2E/DX2                !
 ! R14   R(6,25)                 1.0874         estimate D2E/DX2                !
 ! R15   R(7,26)                 1.0884         estimate D2E/DX2                !
 ! R16   R(8,9)                  1.6505         estimate D2E/DX2                !
 ! R17   R(8,10)                 1.449          estimate D2E/DX2                !
 ! R18   R(8,11)                 1.4458         estimate D2E/DX2                !
 ! R19   R(9,12)                 1.3853         estimate D2E/DX2                !
 ! R20   R(9,17)                 1.0147         estimate D2E/DX2                !
 ! R21   R(12,13)                1.3607         estimate D2E/DX2                !
 ! R22   R(12,16)                1.2215         estimate D2E/DX2                !
 ! R23   R(13,14)                1.4462         estimate D2E/DX2                !
 ! R24   R(13,27)                1.0259         estimate D2E/DX2                !
 ! R25   R(14,15)                1.5284         estimate D2E/DX2                !
 ! R26   R(14,28)                1.0958         estimate D2E/DX2                !
 ! R27   R(14,29)                1.0951         estimate D2E/DX2                !
 ! R28   R(15,18)                1.5298         estimate D2E/DX2                !
 ! R29   R(15,30)                1.0967         estimate D2E/DX2                !
 ! R30   R(15,31)                1.0967         estimate D2E/DX2                !
 ! R31   R(18,19)                1.5203         estimate D2E/DX2                !
 ! R32   R(18,32)                1.0941         estimate D2E/DX2                !
 ! R33   R(18,33)                1.0961         estimate D2E/DX2                !
 ! R34   R(19,34)                1.0948         estimate D2E/DX2                !
 ! R35   R(19,35)                1.0945         estimate D2E/DX2                !
 ! R36   R(19,36)                1.0946         estimate D2E/DX2                !
 ! A1    A(2,1,20)             110.8656         estimate D2E/DX2                !
 ! A2    A(2,1,21)             109.9895         estimate D2E/DX2                !
 ! A3    A(2,1,22)             110.8869         estimate D2E/DX2                !
 ! A4    A(20,1,21)            108.9065         estimate D2E/DX2                !
 ! A5    A(20,1,22)            107.2256         estimate D2E/DX2                !
 ! A6    A(21,1,22)            108.8908         estimate D2E/DX2                !
 ! A7    A(1,2,3)              120.2683         estimate D2E/DX2                !
 ! A8    A(1,2,7)              120.3012         estimate D2E/DX2                !
 ! A9    A(3,2,7)              119.3627         estimate D2E/DX2                !
 ! A10   A(2,3,4)              120.4915         estimate D2E/DX2                !
 ! A11   A(2,3,23)             120.2261         estimate D2E/DX2                !
 ! A12   A(4,3,23)             119.2823         estimate D2E/DX2                !
 ! A13   A(3,4,5)              119.4759         estimate D2E/DX2                !
 ! A14   A(3,4,24)             119.4104         estimate D2E/DX2                !
 ! A15   A(5,4,24)             121.1135         estimate D2E/DX2                !
 ! A16   A(4,5,6)              120.688          estimate D2E/DX2                !
 ! A17   A(4,5,8)              120.2049         estimate D2E/DX2                !
 ! A18   A(6,5,8)              119.0967         estimate D2E/DX2                !
 ! A19   A(5,6,7)              119.4945         estimate D2E/DX2                !
 ! A20   A(5,6,25)             120.8608         estimate D2E/DX2                !
 ! A21   A(7,6,25)             119.6431         estimate D2E/DX2                !
 ! A22   A(2,7,6)              120.4543         estimate D2E/DX2                !
 ! A23   A(2,7,26)             120.2351         estimate D2E/DX2                !
 ! A24   A(6,7,26)             119.3103         estimate D2E/DX2                !
 ! A25   A(5,8,9)              102.0949         estimate D2E/DX2                !
 ! A26   A(5,8,10)             108.077          estimate D2E/DX2                !
 ! A27   A(5,8,11)             107.5094         estimate D2E/DX2                !
 ! A28   A(9,8,10)             108.097          estimate D2E/DX2                !
 ! A29   A(9,8,11)             107.3779         estimate D2E/DX2                !
 ! A30   A(10,8,11)            121.9289         estimate D2E/DX2                !
 ! A31   A(8,9,12)             129.2048         estimate D2E/DX2                !
 ! A32   A(8,9,17)             114.5638         estimate D2E/DX2                !
 ! A33   A(12,9,17)            115.5824         estimate D2E/DX2                !
 ! A34   A(9,12,13)            117.2617         estimate D2E/DX2                !
 ! A35   A(9,12,16)            118.7382         estimate D2E/DX2                !
 ! A36   A(13,12,16)           123.983          estimate D2E/DX2                !
 ! A37   A(12,13,14)           122.6108         estimate D2E/DX2                !
 ! A38   A(12,13,27)           117.9643         estimate D2E/DX2                !
 ! A39   A(14,13,27)           118.9989         estimate D2E/DX2                !
 ! A40   A(13,14,15)           112.5696         estimate D2E/DX2                !
 ! A41   A(13,14,28)           108.5415         estimate D2E/DX2                !
 ! A42   A(13,14,29)           107.5038         estimate D2E/DX2                !
 ! A43   A(15,14,28)           109.4863         estimate D2E/DX2                !
 ! A44   A(15,14,29)           110.7569         estimate D2E/DX2                !
 ! A45   A(28,14,29)           107.8384         estimate D2E/DX2                !
 ! A46   A(14,15,18)           112.3861         estimate D2E/DX2                !
 ! A47   A(14,15,30)           108.5659         estimate D2E/DX2                !
 ! A48   A(14,15,31)           110.0269         estimate D2E/DX2                !
 ! A49   A(18,15,30)           108.9765         estimate D2E/DX2                !
 ! A50   A(18,15,31)           109.6718         estimate D2E/DX2                !
 ! A51   A(30,15,31)           107.0577         estimate D2E/DX2                !
 ! A52   A(15,18,19)           111.5037         estimate D2E/DX2                !
 ! A53   A(15,18,32)           110.2098         estimate D2E/DX2                !
 ! A54   A(15,18,33)           109.8044         estimate D2E/DX2                !
 ! A55   A(19,18,32)           108.8454         estimate D2E/DX2                !
 ! A56   A(19,18,33)           109.191          estimate D2E/DX2                !
 ! A57   A(32,18,33)           107.1788         estimate D2E/DX2                !
 ! A58   A(18,19,34)           110.9699         estimate D2E/DX2                !
 ! A59   A(18,19,35)           110.2411         estimate D2E/DX2                !
 ! A60   A(18,19,36)           111.0272         estimate D2E/DX2                !
 ! A61   A(34,19,35)           108.0506         estimate D2E/DX2                !
 ! A62   A(34,19,36)           108.3451         estimate D2E/DX2                !
 ! A63   A(35,19,36)           108.1015         estimate D2E/DX2                !
 ! D1    D(20,1,2,3)            32.2811         estimate D2E/DX2                !
 ! D2    D(20,1,2,7)          -150.7332         estimate D2E/DX2                !
 ! D3    D(21,1,2,3)           -88.2265         estimate D2E/DX2                !
 ! D4    D(21,1,2,7)            88.7592         estimate D2E/DX2                !
 ! D5    D(22,1,2,3)           151.2717         estimate D2E/DX2                !
 ! D6    D(22,1,2,7)           -31.7426         estimate D2E/DX2                !
 ! D7    D(1,2,3,4)            178.5376         estimate D2E/DX2                !
 ! D8    D(1,2,3,23)            -1.371          estimate D2E/DX2                !
 ! D9    D(7,2,3,4)              1.5236         estimate D2E/DX2                !
 ! D10   D(7,2,3,23)          -178.385          estimate D2E/DX2                !
 ! D11   D(1,2,7,6)           -178.5681         estimate D2E/DX2                !
 ! D12   D(1,2,7,26)             1.2616         estimate D2E/DX2                !
 ! D13   D(3,2,7,6)             -1.5552         estimate D2E/DX2                !
 ! D14   D(3,2,7,26)           178.2746         estimate D2E/DX2                !
 ! D15   D(2,3,4,5)             -0.044          estimate D2E/DX2                !
 ! D16   D(2,3,4,24)          -179.9064         estimate D2E/DX2                !
 ! D17   D(23,3,4,5)           179.8654         estimate D2E/DX2                !
 ! D18   D(23,3,4,24)            0.003          estimate D2E/DX2                !
 ! D19   D(3,4,5,6)             -1.4325         estimate D2E/DX2                !
 ! D20   D(3,4,5,8)            179.7538         estimate D2E/DX2                !
 ! D21   D(24,4,5,6)           178.4275         estimate D2E/DX2                !
 ! D22   D(24,4,5,8)            -0.3861         estimate D2E/DX2                !
 ! D23   D(4,5,6,7)              1.401          estimate D2E/DX2                !
 ! D24   D(4,5,6,25)          -178.1326         estimate D2E/DX2                !
 ! D25   D(8,5,6,7)           -179.7723         estimate D2E/DX2                !
 ! D26   D(8,5,6,25)             0.6941         estimate D2E/DX2                !
 ! D27   D(4,5,8,9)           -113.4952         estimate D2E/DX2                !
 ! D28   D(4,5,8,10)             0.3407         estimate D2E/DX2                !
 ! D29   D(4,5,8,11)           133.681          estimate D2E/DX2                !
 ! D30   D(6,5,8,9)             67.6723         estimate D2E/DX2                !
 ! D31   D(6,5,8,10)          -178.4917         estimate D2E/DX2                !
 ! D32   D(6,5,8,11)           -45.1514         estimate D2E/DX2                !
 ! D33   D(5,6,7,2)              0.1081         estimate D2E/DX2                !
 ! D34   D(5,6,7,26)          -179.7232         estimate D2E/DX2                !
 ! D35   D(25,6,7,2)           179.6475         estimate D2E/DX2                !
 ! D36   D(25,6,7,26)           -0.1838         estimate D2E/DX2                !
 ! D37   D(5,8,9,12)            74.1561         estimate D2E/DX2                !
 ! D38   D(5,8,9,17)           -96.089          estimate D2E/DX2                !
 ! D39   D(10,8,9,12)          -39.6651         estimate D2E/DX2                !
 ! D40   D(10,8,9,17)          150.0898         estimate D2E/DX2                !
 ! D41   D(11,8,9,12)         -172.9222         estimate D2E/DX2                !
 ! D42   D(11,8,9,17)           16.8327         estimate D2E/DX2                !
 ! D43   D(8,9,12,13)           16.678          estimate D2E/DX2                !
 ! D44   D(8,9,12,16)         -164.766          estimate D2E/DX2                !
 ! D45   D(17,9,12,13)        -173.1592         estimate D2E/DX2                !
 ! D46   D(17,9,12,16)           5.3968         estimate D2E/DX2                !
 ! D47   D(9,12,13,14)         179.498          estimate D2E/DX2                !
 ! D48   D(9,12,13,27)           7.0712         estimate D2E/DX2                !
 ! D49   D(16,12,13,14)          1.0249         estimate D2E/DX2                !
 ! D50   D(16,12,13,27)       -171.4018         estimate D2E/DX2                !
 ! D51   D(12,13,14,15)         83.0048         estimate D2E/DX2                !
 ! D52   D(12,13,14,28)        -38.3564         estimate D2E/DX2                !
 ! D53   D(12,13,14,29)       -154.7521         estimate D2E/DX2                !
 ! D54   D(27,13,14,15)       -104.6434         estimate D2E/DX2                !
 ! D55   D(27,13,14,28)        133.9954         estimate D2E/DX2                !
 ! D56   D(27,13,14,29)         17.5996         estimate D2E/DX2                !
 ! D57   D(13,14,15,18)         67.8483         estimate D2E/DX2                !
 ! D58   D(13,14,15,30)       -171.5323         estimate D2E/DX2                !
 ! D59   D(13,14,15,31)        -54.6743         estimate D2E/DX2                !
 ! D60   D(28,14,15,18)       -171.3304         estimate D2E/DX2                !
 ! D61   D(28,14,15,30)        -50.711          estimate D2E/DX2                !
 ! D62   D(28,14,15,31)         66.147          estimate D2E/DX2                !
 ! D63   D(29,14,15,18)        -52.5396         estimate D2E/DX2                !
 ! D64   D(29,14,15,30)         68.0798         estimate D2E/DX2                !
 ! D65   D(29,14,15,31)       -175.0623         estimate D2E/DX2                !
 ! D66   D(14,15,18,19)       -179.8354         estimate D2E/DX2                !
 ! D67   D(14,15,18,32)        -58.8384         estimate D2E/DX2                !
 ! D68   D(14,15,18,33)         59.0066         estimate D2E/DX2                !
 ! D69   D(30,15,18,19)         59.7821         estimate D2E/DX2                !
 ! D70   D(30,15,18,32)       -179.2209         estimate D2E/DX2                !
 ! D71   D(30,15,18,33)        -61.3759         estimate D2E/DX2                !
 ! D72   D(31,15,18,19)        -57.1125         estimate D2E/DX2                !
 ! D73   D(31,15,18,32)         63.8846         estimate D2E/DX2                !
 ! D74   D(31,15,18,33)       -178.2705         estimate D2E/DX2                !
 ! D75   D(15,18,19,34)         60.4674         estimate D2E/DX2                !
 ! D76   D(15,18,19,35)       -179.8628         estimate D2E/DX2                !
 ! D77   D(15,18,19,36)        -60.0926         estimate D2E/DX2                !
 ! D78   D(32,18,19,34)        -61.3227         estimate D2E/DX2                !
 ! D79   D(32,18,19,35)         58.3472         estimate D2E/DX2                !
 ! D80   D(32,18,19,36)        178.1174         estimate D2E/DX2                !
 ! D81   D(33,18,19,34)       -178.0179         estimate D2E/DX2                !
 ! D82   D(33,18,19,35)        -58.3481         estimate D2E/DX2                !
 ! D83   D(33,18,19,36)         61.4222         estimate D2E/DX2                !
 --------------------------------------------------------------------------------
 Trust Radius=3.00D-01 FncErr=1.00D-07 GrdErr=1.00D-06
 Number of steps in this run=    192 maximum allowed number of steps=    216.
 GradGradGradGradGradGradGradGradGradGradGradGradGradGradGradGradGradGrad

                          Input orientation:                          
 ---------------------------------------------------------------------
 Center     Atomic      Atomic             Coordinates (Angstroms)
 Number     Number       Type             X           Y           Z
 ---------------------------------------------------------------------
      1          6           0        4.069700    2.475600    0.521500
      2          6           0        3.088500    1.365800    0.279200
      3          6           0        2.287200    1.369800   -0.870700
      4          6           0        1.394900    0.324600   -1.115900
      5          6           0        1.305400   -0.730000   -0.205600
      6          6           0        2.119700   -0.763300    0.929700
      7          6           0        3.009900    0.284900    1.167800
      8         16           0        0.172700   -2.065700   -0.494900
      9          7           0       -0.907900   -1.876000    0.738200
     10          8           0       -0.517900   -1.807400   -1.742300
     11          8           0        0.886400   -3.300400   -0.257500
     12          6           0       -1.905000   -0.926400    0.890400
     13          7           0       -2.278700   -0.231800   -0.218400
     14          6           0       -3.314100    0.777600   -0.193600
     15          6           0       -2.796400    2.137600    0.273600
     16          8           0       -2.412700   -0.779200    1.991600
     17          1           0       -0.724200   -2.452800    1.552500
     18          6           0       -1.829400    2.768900   -0.729700
     19          6           0       -1.324100    4.117900   -0.243600
     20          1           0        3.697900    3.421100    0.112800
     21          1           0        5.027700    2.237600    0.049400
     22          1           0        4.230900    2.627000    1.594100
     23          1           0        2.356000    2.189300   -1.583600
     24          1           0        0.782800    0.344800   -2.014300
     25          1           0        2.073700   -1.598200    1.624800
     26          1           0        3.645900    0.253700    2.050500
     27          1           0       -1.887100   -0.520500   -1.121600
     28          1           0       -4.113100    0.440800    0.476400
     29          1           0       -3.730600    0.847100   -1.204000
     30          1           0       -3.653000    2.808000    0.413600
     31          1           0       -2.303700    2.037300    1.248300
     32          1           0       -0.972400    2.109200   -0.895100
     33          1           0       -2.329500    2.898500   -1.696400
     34          1           0       -0.787800    4.016600    0.705400
     35          1           0       -0.636900    4.551500   -0.976900
     36          1           0       -2.152500    4.818400   -0.098100
 ---------------------------------------------------------------------
                    Distance matrix (angstroms):
                    1          2          3          4          5
     1  C    0.000000
     2  C    1.501039   0.000000
     3  C    2.517602   1.401559   0.000000
     4  C    3.802951   2.428720   1.395982   0.000000
     5  C    4.294869   2.794075   2.411524   1.396008   0.000000
     6  C    3.802578   2.427919   2.796357   2.427620   1.397533
     7  C    2.517945   1.401475   2.419666   2.797336   2.412793
     8  S    6.069850   4.569060   4.051542   2.755530   1.775049
     9  N    6.615125   5.166349   4.830367   3.685541   2.665102
    10  O    6.671953   5.211697   4.326993   2.931997   2.616612
    11  O    6.640965   5.187554   4.914166   3.759794   2.604844
    12  C    6.885255   5.528362   5.093972   4.059505   3.398008
    13  N    6.941156   5.621990   4.882424   3.822358   3.618583
    14  C    7.610195   6.446922   5.673070   4.819806   4.859299
    15  C    6.878883   5.935297   5.267061   4.773330   5.027676
    16  O    7.401110   6.147889   5.907624   5.037137   4.319071
    17  H    6.952235   5.544338   5.436239   4.396009   3.190334
    18  C    6.037459   5.212707   4.350145   4.064463   4.726939
    19  C    5.689957   5.226702   4.581135   4.747946   5.515238
    20  H    1.095099   2.150190   2.676785   4.049917   4.801777
    21  H    1.094206   2.138537   3.018278   4.267872   4.767304
    22  H    1.095161   2.150503   3.381384   4.548411   4.802803
    23  H    2.729502   2.164424   1.088366   2.149317   3.394843
    24  H    4.666294   3.408641   2.149806   1.087289   2.167879
    25  H    4.668740   3.409656   3.883571   3.416045   2.166661
    26  H    2.730254   2.164478   3.409568   3.885630   3.396409
    27  H    6.867304   5.502451   4.589223   3.389063   3.327913
    28  H    8.432121   7.263440   6.606176   5.734718   5.585341
    29  H    8.153162   6.997789   6.049646   5.152817   5.370786
    30  H    7.730603   6.895348   6.245304   5.829918   6.122629
    31  H    6.429663   5.519591   5.100204   4.711945   4.774660
    32  H    5.250122   4.292148   3.342499   2.972820   3.704705
    33  H    6.785844   5.967151   4.932811   4.564329   5.347990
    34  H    5.099393   4.715304   4.352616   4.659633   5.267031
    35  H    5.357858   5.060146   4.322598   4.691931   5.679936
    36  H    6.677454   6.287359   5.674565   5.814998   6.538606
                    6          7          8          9         10
     6  C    0.000000
     7  C    1.395661   0.000000
     8  S    2.741631   4.042227   0.000000
     9  N    3.231275   4.494797   1.650521   0.000000
    10  O    3.897007   5.029093   1.449018   2.511909   0.000000
    11  O    3.060613   4.403988   1.445756   2.497968   2.530956
    12  C    4.028195   5.069560   2.744795   1.385321   3.103436
    13  N    4.576740   5.491614   3.073923   2.344690   2.811619
    14  C    5.758677   6.487614   4.509203   3.701303   4.110892
    15  C    5.745757   6.159968   5.203256   4.459963   4.981811
    16  O    4.655162   5.587087   3.810782   2.244639   4.311551
    17  H    3.366015   4.646127   2.268507   1.014657   3.363749
    18  C    5.552066   5.761040   5.238024   4.957720   4.867023
    19  C    6.087898   5.955459   6.367140   6.088020   6.164839
    20  H    4.546124   3.379663   6.549909   7.047254   6.967896
    21  H    4.270456   3.022478   6.510428   7.254481   7.094075
    22  H    4.048793   2.675445   6.546323   6.885989   7.303874
    23  H    3.884631   3.409476   4.904803   5.707054   4.925251
    24  H    3.417941   3.884498   2.913985   3.920035   2.529381
    25  H    1.087354   2.152065   2.885392   3.123007   4.254118
    26  H    2.149365   1.088407   4.890991   5.195657   5.997557
    27  H    4.507907   5.465403   2.650127   2.501014   1.978911
    28  H    6.364207   7.158175   5.059056   3.963510   4.785655
    29  H    6.432113   7.167694   4.921684   4.376648   4.202092
    30  H    6.807687   7.164432   6.262133   5.438823   5.981528
    31  H    5.245125   5.595689   5.099599   4.185974   5.187918
    32  H    4.598068   4.841729   4.347552   4.307395   4.032874
    33  H    6.332500   6.598768   5.687520   5.544734   5.042767
    34  H    5.599224   5.344336   6.273568   5.893915   6.323216
    35  H    6.283396   6.008558   6.683944   6.657910   6.405904
    36  H    7.103762   6.986093   7.277007   6.860278   7.019725
                   11         12         13         14         15
    11  O    0.000000
    12  C    3.839982   0.000000
    13  N    4.408593   1.360720   0.000000
    14  C    5.854773   2.462567   1.446221   0.000000
    15  C    6.589152   3.250097   2.474699   1.528362   0.000000
    16  O    4.722178   1.221503   2.280724   2.830415   3.406827
    17  H    2.566819   2.040236   3.238116   4.493543   5.196284
    18  C    6.665954   4.035552   3.076930   2.541065   1.529784
    19  C    7.740651   5.202727   4.453289   3.888471   2.521260
    20  H    7.295219   7.134277   7.012355   7.500008   6.621870
    21  H    6.921994   7.666845   7.717068   8.472088   7.827950
    22  H    7.053239   7.125385   7.337083   7.971397   7.167020
    23  H    5.835672   5.829613   5.404252   6.006249   5.477143
    24  H    4.047785   4.156621   3.595901   4.504093   4.610780
    25  H    2.801824   4.101306   4.920144   6.162742   6.284888
    26  H    5.057008   5.792319   6.362743   7.331579   6.943319
    27  H    4.020798   2.052613   1.025899   2.140695   3.136703
    28  H    6.287304   2.629893   2.073683   1.095781   2.157303
    29  H    6.278082   3.296154   2.059963   1.095085   2.172883
    30  H    7.639966   4.150733   3.395366   2.146175   1.096722
    31  H    6.398063   3.011739   2.701971   2.164908   1.096747
    32  H    5.755471   3.643161   2.764891   2.783670   2.166482
    33  H    7.130134   4.636981   3.462058   2.779579   2.162837
    34  H    7.567603   5.071056   4.596204   4.204939   2.784163
    35  H    8.030586   5.924717   5.113784   4.692897   3.471902
    36  H    8.670365   5.834476   5.053209   4.205532   2.781988
                   16         17         18         19         20
    16  O    0.000000
    17  H    2.417598   0.000000
    18  C    4.509404   5.804830   0.000000
    19  C    5.492063   6.838125   1.520336   0.000000
    20  H    7.649303   7.492023   5.629051   5.082621   0.000000
    21  H    8.260313   7.572550   6.921640   6.630742   1.781308
    22  H    7.476471   7.096416   6.492104   6.038042   1.763217
    23  H    6.658419   6.393109   4.310760   4.365574   2.489136
    24  H    5.246125   4.776995   3.788146   4.670192   4.741939
    25  H    4.575269   2.926399   6.312640   6.907225   5.487945
    26  H    6.146299   5.164390   6.635861   6.700436   3.713463
    27  H    3.167838   3.498132   3.313166   4.754220   6.946379
    28  H    2.583717   4.584273   3.477070   4.670973   8.368161
    29  H    3.820153   5.246530   2.744601   4.172738   7.971327
    30  H    4.110527   6.127885   2.152715   2.751640   7.382554
    31  H    2.914970   4.769524   2.161639   2.741218   6.262864
    32  H    4.330168   5.183068   1.094080   2.140799   4.954659
    33  H    5.209006   6.462875   1.096086   2.146717   6.314734
    34  H    5.224395   6.524934   2.168225   1.094751   4.563694
    35  H    6.354669   7.447530   2.158895   1.094523   4.610395
    36  H    5.980608   7.591763   2.168816   1.094585   6.018647
                   21         22         23         24         25
    21  H    0.000000
    22  H    1.781185   0.000000
    23  H    3.131613   3.715455   0.000000
    24  H    5.085344   5.488022   2.462243   0.000000
    25  H    5.091303   4.744130   4.971788   4.322583   0.000000
    26  H    3.138412   2.486580   4.314751   4.972750   2.466286
    27  H    7.536101   7.396736   5.055725   2.945170   4.938835
    28  H    9.325505   8.697762   7.010714   5.493873   6.614593
    29  H    8.956133   8.624552   6.244381   4.612989   6.904455
    30  H    8.707040   7.973846   6.362364   5.624800   7.326438
    31  H    7.431481   6.570260   5.454866   4.799541   5.702652
    32  H    6.075341   5.791249   3.399808   2.728817   5.419727
    33  H    7.590323   7.344382   4.740211   4.038422   7.116098
    34  H    6.116798   5.282814   4.296746   4.831735   6.368631
    35  H    6.204443   5.831742   3.860767   4.559394   7.206595
    36  H    7.631354   6.957986   5.426366   5.683389   7.874129
                   26         27         28         29         30
    26  H    0.000000
    27  H    6.424616   0.000000
    28  H    7.919273   2.903925   0.000000
    29  H    8.084346   2.296870   1.770630   0.000000
    30  H    7.904292   4.068680   2.412317   2.543183   0.000000
    31  H    6.262786   3.511741   2.533490   3.076751   1.763891
    32  H    5.783436   2.793439   3.811636   3.048931   3.063761
    33  H    7.532571   3.495093   3.733976   2.532544   2.492377
    34  H    5.968786   5.013149   4.888395   4.727749   3.123337
    35  H    6.780753   5.225813   5.576191   4.831680   3.751019
    36  H    7.685988   5.442595   4.830878   4.414141   2.560282
                   31         32         33         34         35
    31  H    0.000000
    32  H    2.524221   0.000000
    33  H    3.068157   1.762611   0.000000
    34  H    2.551533   2.496768   3.065229   0.000000
    35  H    3.748458   2.466593   2.472849   1.771729   0.000000
    36  H    3.093569   3.060655   2.504378   1.775078   1.772165
                   36
    36  H    0.000000
 Stoichiometry    C12H18N2O3S
 Framework group  C1[X(C12H18N2O3S)]
 Deg. of freedom   102
 Full point group                 C1      NOp   1
 Largest Abelian subgroup         C1      NOp   1
 Largest concise Abelian subgroup C1      NOp   1
                         Standard orientation:                         
 ---------------------------------------------------------------------
 Center     Atomic      Atomic             Coordinates (Angstroms)
 Number     Number       Type             X           Y           Z
 ---------------------------------------------------------------------
      1          6           0        4.037347    2.439156    0.487686
      2          6           0        3.073451    1.313931    0.247075
      3          6           0        2.254966    1.315948   -0.890662
      4          6           0        1.378698    0.257012   -1.134740
      5          6           0        1.322599   -0.809374   -0.235568
      6          6           0        2.154407   -0.840273    0.887036
      7          6           0        3.028413    0.221703    1.124082
      8         16           0        0.210747   -2.162758   -0.523552
      9          7           0       -0.854481   -2.007455    0.727602
     10          8           0       -0.503278   -1.903312   -1.757452
     11          8           0        0.950826   -3.386442   -0.311199
     12          6           0       -1.866691   -1.078565    0.905669
     13          7           0       -2.269946   -0.378542   -0.189280
     14          6           0       -3.323480    0.610862   -0.137325
     15          6           0       -2.824222    1.974952    0.337953
     16          8           0       -2.360381   -0.953477    2.015935
     17          1           0       -0.647807   -2.589927    1.532301
     18          6           0       -1.884391    2.635699   -0.672182
     19          6           0       -1.397039    3.988343   -0.177951
     20          1           0        3.641875    3.382087    0.095609
     21          1           0        4.992386    2.224599   -0.001345
     22          1           0        4.211855    2.581346    1.559463
     23          1           0        2.297727    2.144655   -1.594903
     24          1           0        0.752849    0.275920   -2.023646
     25          1           0        2.134457   -1.683746    1.572962
     26          1           0        3.678123    0.192425    1.996807
     27          1           0       -1.886700   -0.649532   -1.101506
     28          1           0       -4.105872    0.251496    0.540506
     29          1           0       -3.756393    0.684011   -1.140543
     30          1           0       -3.690954    2.627490    0.498478
     31          1           0       -2.315095    1.872850    1.303986
     32          1           0       -1.017841    1.994155   -0.857983
     33          1           0       -2.401341    2.766864   -1.629764
     34          1           0       -0.844694    3.886354    0.761726
     35          1           0       -0.729173    4.443105   -0.916280
     36          1           0       -2.236058    4.671442   -0.011996
 ---------------------------------------------------------------------
 Rotational constants (GHZ):      0.3948618      0.3400088      0.2193308
 Standard basis: def2TZVP (5D, 7F)
 There are   762 symmetry adapted cartesian basis functions of A   symmetry.
 There are   672 symmetry adapted basis functions of A   symmetry.
   672 basis functions,  1080 primitive gaussians,   762 cartesian basis functions
    72 alpha electrons       72 beta electrons
       nuclear repulsion energy      1559.7163721273 Hartrees.
 NAtoms=   36 NActive=   36 NUniq=   36 SFac= 1.00D+00 NAtFMM=   60 NAOKFM=F Big=F
 Integral buffers will be    131072 words long.
 Raffenetti 2 integral format.
 Two-electron integral symmetry is turned on.
 One-electron integrals computed using PRISM.
   1 Symmetry operations used in ECPInt.
 ECPInt:  NShTT=   37128 NPrTT=  113514 LenC2=   33239 LenP2D=   72182.
 LDataN:  DoStor=T MaxTD1= 6 Len=  172
 NBasis=   672 RedAO= T EigKep=  7.15D-06  NBF=   672
 NBsUse=   672 1.00D-06 EigRej= -1.00D+00 NBFU=   672
 ExpMin= 9.52D-02 ExpMax= 6.07D+04 ExpMxC= 2.07D+03 IAcc=2 IRadAn=         4 AccDes= 0.00D+00
 Harris functional with IExCor=  402 and IRadAn=       4 diagonalized for initial guess.
 HarFok:  IExCor=  402 AccDes= 0.00D+00 IRadAn=         4 IDoV= 1 UseB2=F ITyADJ=14
 ICtDFT=  3500011 ScaDFX=  1.000000  1.000000  1.000000  1.000000
 FoFCou: FMM=F IPFlag=           0 FMFlag=      100000 FMFlg1=           0
         NFxFlg=           0 DoJE=T BraDBF=F KetDBF=T FulRan=T
         wScrn=  0.000000 ICntrl=     500 IOpCl=  0 I1Cent=   200000004 NGrid=           0
         NMat0=    1 NMatS0=      1 NMatT0=    0 NMatD0=    1 NMtDS0=    0 NMtDT0=    0
 Petite list used in FoFCou.
 Requested convergence on RMS density matrix=1.00D-08 within 128 cycles.
 Requested convergence on MAX density matrix=1.00D-06.
 Requested convergence on             energy=1.00D-06.
 No special actions if energy rises.
 Integral accuracy reduced to 1.0D-05 until final iterations.
 Problem detected with inexpensive integrals.
 Switching to full accuracy and repeating last cycle.
 SCF Done:  E(RB3LYP) =  -1201.84782045     A.U. after   17 cycles
            NFock= 17  Conv=0.61D-08     -V/T= 2.0040

 **********************************************************************

            Population analysis using the SCF density.

 **********************************************************************

 Orbital symmetries:
       Occupied  (A) (A) (A) (A) (A) (A) (A) (A) (A) (A) (A) (A)
                 (A) (A) (A) (A) (A) (A) (A) (A) (A) (A) (A) (A)
                 (A) (A) (A) (A) (A) (A) (A) (A) (A) (A) (A) (A)
                 (A) (A) (A) (A) (A) (A) (A) (A) (A) (A) (A) (A)
                 (A) (A) (A) (A) (A) (A) (A) (A) (A) (A) (A) (A)
                 (A) (A) (A) (A) (A) (A) (A) (A) (A) (A) (A) (A)
       Virtual   (A) (A) (A) (A) (A) (A) (A) (A) (A) (A) (A) (A)
                 (A) (A) (A) (A) (A) (A) (A) (A) (A) (A) (A) (A)
                 (A) (A) (A) (A) (A) (A) (A) (A) (A) (A) (A) (A)
                 (A) (A) (A) (A) (A) (A) (A) (A) (A) (A) (A) (A)
                 (A) (A) (A) (A) (A) (A) (A) (A) (A) (A) (A) (A)
                 (A) (A) (A) (A) (A) (A) (A) (A) (A) (A) (A) (A)
                 (A) (A) (A) (A) (A) (A) (A) (A) (A) (A) (A) (A)
                 (A) (A) (A) (A) (A) (A) (A) (A) (A) (A) (A) (A)
                 (A) (A) (A) (A) (A) (A) (A) (A) (A) (A) (A) (A)
                 (A) (A) (A) (A) (A) (A) (A) (A) (A) (A) (A) (A)
                 (A) (A) (A) (A) (A) (A) (A) (A) (A) (A) (A) (A)
                 (A) (A) (A) (A) (A) (A) (A) (A) (A) (A) (A) (A)
                 (A) (A) (A) (A) (A) (A) (A) (A) (A) (A) (A) (A)
                 (A) (A) (A) (A) (A) (A) (A) (A) (A) (A) (A) (A)
                 (A) (A) (A) (A) (A) (A) (A) (A) (A) (A) (A) (A)
                 (A) (A) (A) (A) (A) (A) (A) (A) (A) (A) (A) (A)
                 (A) (A) (A) (A) (A) (A) (A) (A) (A) (A) (A) (A)
                 (A) (A) (A) (A) (A) (A) (A) (A) (A) (A) (A) (A)
                 (A) (A) (A) (A) (A) (A) (A) (A) (A) (A) (A) (A)
                 (A) (A) (A) (A) (A) (A) (A) (A) (A) (A) (A) (A)
                 (A) (A) (A) (A) (A) (A) (A) (A) (A) (A) (A) (A)
                 (A) (A) (A) (A) (A) (A) (A) (A) (A) (A) (A) (A)
                 (A) (A) (A) (A) (A) (A) (A) (A) (A) (A) (A) (A)
                 (A) (A) (A) (A) (A) (A) (A) (A) (A) (A) (A) (A)
                 (A) (A) (A) (A) (A) (A) (A) (A) (A) (A) (A) (A)
                 (A) (A) (A) (A) (A) (A) (A) (A) (A) (A) (A) (A)
                 (A) (A) (A) (A) (A) (A) (A) (A) (A) (A) (A) (A)
                 (A) (A) (A) (A) (A) (A) (A) (A) (A) (A) (A) (A)
                 (A) (A) (A) (A) (A) (A) (A) (A) (A) (A) (A) (A)
                 (A) (A) (A) (A) (A) (A) (A) (A) (A) (A) (A) (A)
                 (A) (A) (A) (A) (A) (A) (A) (A) (A) (A) (A) (A)
                 (A) (A) (A) (A) (A) (A) (A) (A) (A) (A) (A) (A)
                 (A) (A) (A) (A) (A) (A) (A) (A) (A) (A) (A) (A)
                 (A) (A) (A) (A) (A) (A) (A) (A) (A) (A) (A) (A)
                 (A) (A) (A) (A) (A) (A) (A) (A) (A) (A) (A) (A)
                 (A) (A) (A) (A) (A) (A) (A) (A) (A) (A) (A) (A)
                 (A) (A) (A) (A) (A) (A) (A) (A) (A) (A) (A) (A)
                 (A) (A) (A) (A) (A) (A) (A) (A) (A) (A) (A) (A)
                 (A) (A) (A) (A) (A) (A) (A) (A) (A) (A) (A) (A)
                 (A) (A) (A) (A) (A) (A) (A) (A) (A) (A) (A) (A)
                 (A) (A) (A) (A) (A) (A) (A) (A) (A) (A) (A) (A)
                 (A) (A) (A) (A) (A) (A) (A) (A) (A) (A) (A) (A)
                 (A) (A) (A) (A) (A) (A) (A) (A) (A) (A) (A) (A)
                 (A) (A) (A) (A) (A) (A) (A) (A) (A) (A) (A) (A)
                 (A) (A) (A) (A) (A) (A) (A) (A) (A) (A) (A) (A)
                 (A) (A) (A) (A) (A) (A) (A) (A) (A) (A) (A) (A)
                 (A) (A) (A) (A) (A) (A) (A) (A) (A) (A) (A) (A)
                 (A) (A) (A) (A) (A) (A) (A) (A) (A) (A) (A) (A)
                 (A) (A) (A) (A) (A) (A) (A) (A) (A) (A) (A) (A)
                 (A) (A) (A) (A) (A) (A) (A) (A) (A) (A) (A) (A)
 The electronic state is 1-A.
 Alpha  occ. eigenvalues --  -89.07784 -19.14367 -19.13968 -19.09563 -14.37328
 Alpha  occ. eigenvalues --  -14.34312 -10.31284 -10.22345 -10.21417 -10.21154
 Alpha  occ. eigenvalues --  -10.20997 -10.20980 -10.20220 -10.20120 -10.18912
 Alpha  occ. eigenvalues --  -10.16970 -10.16903 -10.16324  -8.12303  -6.08702
 Alpha  occ. eigenvalues --   -6.08486  -6.08461  -1.14085  -1.06242  -1.03167
 Alpha  occ. eigenvalues --   -0.94909  -0.92654  -0.89080  -0.81202  -0.80112
 Alpha  occ. eigenvalues --   -0.77705  -0.74183  -0.73051  -0.68538  -0.65749
 Alpha  occ. eigenvalues --   -0.63988  -0.62206  -0.60759  -0.58294  -0.57113
 Alpha  occ. eigenvalues --   -0.56466  -0.52750  -0.50028  -0.49620  -0.48821
 Alpha  occ. eigenvalues --   -0.47175  -0.46625  -0.46002  -0.45443  -0.45241
 Alpha  occ. eigenvalues --   -0.44853  -0.44050  -0.42994  -0.42531  -0.40950
 Alpha  occ. eigenvalues --   -0.39370  -0.39257  -0.38706  -0.37555  -0.37405
 Alpha  occ. eigenvalues --   -0.37161  -0.35412  -0.35239  -0.34170  -0.33892
 Alpha  occ. eigenvalues --   -0.33683  -0.33264  -0.31145  -0.28531  -0.28074
 Alpha  occ. eigenvalues --   -0.27225  -0.26448
 Alpha virt. eigenvalues --   -0.05683  -0.04293   0.01357   0.01682   0.02806
 Alpha virt. eigenvalues --    0.03439   0.04274   0.04759   0.06018   0.06241
 Alpha virt. eigenvalues --    0.06667   0.07411   0.08011   0.08392   0.09454
 Alpha virt. eigenvalues --    0.09788   0.10411   0.10633   0.10685   0.10955
 Alpha virt. eigenvalues --    0.11600   0.11875   0.12698   0.12772   0.13541
 Alpha virt. eigenvalues --    0.13924   0.14459   0.14949   0.15659   0.16686
 Alpha virt. eigenvalues --    0.16796   0.18096   0.18490   0.19602   0.19724
 Alpha virt. eigenvalues --    0.20020   0.20841   0.21768   0.22267   0.22546
 Alpha virt. eigenvalues --    0.22910   0.23421   0.23761   0.24806   0.25261
 Alpha virt. eigenvalues --    0.25879   0.26070   0.26201   0.28189   0.28304
 Alpha virt. eigenvalues --    0.29469   0.29648   0.30323   0.30492   0.31821
 Alpha virt. eigenvalues --    0.32349   0.32375   0.33091   0.33968   0.34178
 Alpha virt. eigenvalues --    0.35142   0.35297   0.36298   0.36652   0.36961
 Alpha virt. eigenvalues --    0.37183   0.37868   0.38387   0.39572   0.39766
 Alpha virt. eigenvalues --    0.40181   0.40626   0.41368   0.41857   0.42144
 Alpha virt. eigenvalues --    0.42519   0.42658   0.43349   0.43864   0.44256
 Alpha virt. eigenvalues --    0.44380   0.45086   0.45611   0.46065   0.46191
 Alpha virt. eigenvalues --    0.46432   0.47013   0.47204   0.47704   0.48003
 Alpha virt. eigenvalues --    0.48498   0.49100   0.49349   0.49694   0.50576
 Alpha virt. eigenvalues --    0.50814   0.51133   0.52421   0.53696   0.53870
 Alpha virt. eigenvalues --    0.54375   0.55702   0.56351   0.56971   0.58046
 Alpha virt. eigenvalues --    0.58283   0.59259   0.59965   0.60923   0.61411
 Alpha virt. eigenvalues --    0.62191   0.62600   0.64329   0.65542   0.65736
 Alpha virt. eigenvalues --    0.66912   0.67832   0.68039   0.68421   0.69419
 Alpha virt. eigenvalues --    0.69603   0.70195   0.71033   0.72034   0.72931
 Alpha virt. eigenvalues --    0.73757   0.74286   0.74679   0.75329   0.76710
 Alpha virt. eigenvalues --    0.77807   0.78625   0.79318   0.80067   0.80696
 Alpha virt. eigenvalues --    0.81237   0.82226   0.83273   0.84213   0.85359
 Alpha virt. eigenvalues --    0.85624   0.85986   0.86645   0.87221   0.87357
 Alpha virt. eigenvalues --    0.88706   0.90542   0.90968   0.92932   0.93239
 Alpha virt. eigenvalues --    0.94189   0.94702   0.96668   0.97502   0.99082
 Alpha virt. eigenvalues --    0.99281   0.99903   1.00236   1.02004   1.03405
 Alpha virt. eigenvalues --    1.04506   1.04771   1.05543   1.06461   1.07673
 Alpha virt. eigenvalues --    1.08649   1.10358   1.11481   1.13014   1.13677
 Alpha virt. eigenvalues --    1.15206   1.16385   1.16825   1.17902   1.19476
 Alpha virt. eigenvalues --    1.19727   1.19949   1.20799   1.21008   1.22255
 Alpha virt. eigenvalues --    1.23408   1.23593   1.24724   1.25565   1.26989
 Alpha virt. eigenvalues --    1.27752   1.28145   1.29378   1.29921   1.31571
 Alpha virt. eigenvalues --    1.32066   1.32710   1.34877   1.35789   1.37559
 Alpha virt. eigenvalues --    1.37917   1.38493   1.42220   1.42694   1.44706
 Alpha virt. eigenvalues --    1.45049   1.45808   1.46592   1.47762   1.48721
 Alpha virt. eigenvalues --    1.49677   1.50048   1.51758   1.52172   1.52302
 Alpha virt. eigenvalues --    1.52907   1.53005   1.53518   1.54609   1.55393
 Alpha virt. eigenvalues --    1.55853   1.56514   1.56961   1.57128   1.57838
 Alpha virt. eigenvalues --    1.58096   1.58639   1.59253   1.60212   1.60848
 Alpha virt. eigenvalues --    1.60969   1.62312   1.63041   1.63914   1.64442
 Alpha virt. eigenvalues --    1.65337   1.66216   1.67867   1.68557   1.69603
 Alpha virt. eigenvalues --    1.70698   1.71370   1.71728   1.72317   1.74121
 Alpha virt. eigenvalues --    1.74730   1.76186   1.76638   1.77585   1.78383
 Alpha virt. eigenvalues --    1.79554   1.81075   1.81804   1.83065   1.84184
 Alpha virt. eigenvalues --    1.85189   1.86605   1.87289   1.88252   1.89600
 Alpha virt. eigenvalues --    1.90365   1.90672   1.91306   1.93446   1.94126
 Alpha virt. eigenvalues --    1.95223   1.96213   1.96876   1.97429   1.98397
 Alpha virt. eigenvalues --    2.00012   2.00738   2.02459   2.02650   2.04612
 Alpha virt. eigenvalues --    2.05623   2.05950   2.07562   2.08705   2.09433
 Alpha virt. eigenvalues --    2.10594   2.12049   2.12451   2.12932   2.13812
 Alpha virt. eigenvalues --    2.15507   2.15908   2.16718   2.17691   2.19084
 Alpha virt. eigenvalues --    2.19718   2.20184   2.20506   2.23093   2.23735
 Alpha virt. eigenvalues --    2.24784   2.26591   2.27512   2.28613   2.29187
 Alpha virt. eigenvalues --    2.30405   2.32172   2.33137   2.33497   2.33752
 Alpha virt. eigenvalues --    2.34219   2.35987   2.36400   2.37414   2.38504
 Alpha virt. eigenvalues --    2.40055   2.40538   2.41492   2.43161   2.43334
 Alpha virt. eigenvalues --    2.44162   2.44633   2.45611   2.46434   2.47396
 Alpha virt. eigenvalues --    2.48341   2.49474   2.50243   2.51473   2.52415
 Alpha virt. eigenvalues --    2.54044   2.54313   2.55251   2.56263   2.56622
 Alpha virt. eigenvalues --    2.57459   2.58151   2.58285   2.59517   2.60120
 Alpha virt. eigenvalues --    2.60926   2.61511   2.62147   2.63752   2.64034
 Alpha virt. eigenvalues --    2.65269   2.65617   2.66423   2.67567   2.67746
 Alpha virt. eigenvalues --    2.68630   2.69478   2.69920   2.71436   2.72976
 Alpha virt. eigenvalues --    2.73402   2.73684   2.74966   2.75640   2.76994
 Alpha virt. eigenvalues --    2.77954   2.78835   2.79255   2.79784   2.81289
 Alpha virt. eigenvalues --    2.82012   2.83330   2.84538   2.85691   2.86002
 Alpha virt. eigenvalues --    2.88377   2.89416   2.90318   2.91968   2.92698
 Alpha virt. eigenvalues --    2.93535   2.94368   2.95566   2.96574   2.97795
 Alpha virt. eigenvalues --    2.99374   3.00599   3.00707   3.01758   3.02587
 Alpha virt. eigenvalues --    3.03044   3.04376   3.05279   3.06717   3.07750
 Alpha virt. eigenvalues --    3.09621   3.09909   3.10598   3.10846   3.11073
 Alpha virt. eigenvalues --    3.11853   3.12163   3.12770   3.14067   3.14553
 Alpha virt. eigenvalues --    3.15005   3.16093   3.16441   3.17991   3.18918
 Alpha virt. eigenvalues --    3.19209   3.20232   3.21313   3.21446   3.22558
 Alpha virt. eigenvalues --    3.22859   3.24123   3.25013   3.25944   3.26291
 Alpha virt. eigenvalues --    3.27153   3.27888   3.28935   3.29808   3.29984
 Alpha virt. eigenvalues --    3.30824   3.32111   3.32622   3.33381   3.33661
 Alpha virt. eigenvalues --    3.34164   3.34871   3.35925   3.36772   3.37348
 Alpha virt. eigenvalues --    3.38626   3.39156   3.40624   3.40831   3.42145
 Alpha virt. eigenvalues --    3.42620   3.42942   3.44536   3.44894   3.45713
 Alpha virt. eigenvalues --    3.46580   3.46867   3.48381   3.49615   3.50611
 Alpha virt. eigenvalues --    3.51698   3.52263   3.52862   3.54304   3.56138
 Alpha virt. eigenvalues --    3.57639   3.58222   3.59180   3.62368   3.63718
 Alpha virt. eigenvalues --    3.65863   3.67550   3.70623   3.71345   3.72328
 Alpha virt. eigenvalues --    3.74057   3.74648   3.75873   3.78754   3.79479
 Alpha virt. eigenvalues --    3.81076   3.82808   3.83869   3.84854   3.86307
 Alpha virt. eigenvalues --    3.87742   3.90185   3.91476   3.92005   3.92519
 Alpha virt. eigenvalues --    3.96199   3.97626   3.98781   3.98977   4.01664
 Alpha virt. eigenvalues --    4.06726   4.07432   4.09438   4.10333   4.12037
 Alpha virt. eigenvalues --    4.13013   4.14414   4.15185   4.16877   4.18334
 Alpha virt. eigenvalues --    4.19127   4.20208   4.21106   4.23302   4.25448
 Alpha virt. eigenvalues --    4.26773   4.27128   4.28310   4.28732   4.30576
 Alpha virt. eigenvalues --    4.32611   4.35149   4.36898   4.37726   4.40717
 Alpha virt. eigenvalues --    4.42011   4.43906   4.46016   4.50959   4.51686
 Alpha virt. eigenvalues --    4.53253   4.55907   4.56707   4.60704   4.63130
 Alpha virt. eigenvalues --    4.64858   4.65901   4.67042   4.67516   4.67769
 Alpha virt. eigenvalues --    4.70520   4.73888   4.78343   4.80461   4.84456
 Alpha virt. eigenvalues --    4.86295   4.86502   4.87161   4.89894   4.93425
 Alpha virt. eigenvalues --    4.95726   4.99549   5.02052   5.05492   5.06886
 Alpha virt. eigenvalues --    5.07365   5.11429   5.11967   5.12630   5.13179
 Alpha virt. eigenvalues --    5.13430   5.14201   5.15110   5.16862   5.18035
 Alpha virt. eigenvalues --    5.20313   5.23711   5.24422   5.26000   5.27051
 Alpha virt. eigenvalues --    5.28280   5.31008   5.32281   5.33706   5.35151
 Alpha virt. eigenvalues --    5.39681   5.41175   5.41998   5.45687   5.47686
 Alpha virt. eigenvalues --    5.53186   5.56955   5.61849   5.62640   5.63793
 Alpha virt. eigenvalues --    5.65388   5.71156   5.77653   5.80866   5.91330
 Alpha virt. eigenvalues --    6.01752   6.14086   6.29631   6.33791   6.35423
 Alpha virt. eigenvalues --    6.39420   6.40144   6.47019   6.59670   6.70103
 Alpha virt. eigenvalues --    6.77958   6.79309   6.82111   6.82775   6.84758
 Alpha virt. eigenvalues --    6.88156   6.94498   7.07571   7.14346   9.36873
 Alpha virt. eigenvalues --    9.46816   9.71601  22.01609  22.30657  22.34688
 Alpha virt. eigenvalues --   22.36233  22.41962  22.47875  22.54350  22.62936
 Alpha virt. eigenvalues --   22.65981  22.72595  22.85399  23.19697  23.48654
 Alpha virt. eigenvalues --   32.26213  32.52641  43.63021  43.86467  43.90230
          Condensed to atoms (all electrons):
               1          2          3          4          5          6
     1  C    4.971030   0.287479  -0.072199   0.012870  -0.004762   0.015533
     2  C    0.287479   5.014435   0.421062   0.024040  -0.112548   0.037194
     3  C   -0.072199   0.421062   5.101935   0.363454   0.016212  -0.049233
     4  C    0.012870   0.024040   0.363454   5.156462   0.355124  -0.068245
     5  C   -0.004762  -0.112548   0.016212   0.355124   5.449781   0.275816
     6  C    0.015533   0.037194  -0.049233  -0.068245   0.275816   5.184185
     7  C   -0.076334   0.408059  -0.018778  -0.062909   0.050442   0.337162
     8  S   -0.000010  -0.001177   0.004151  -0.038292   0.297623  -0.009311
     9  N   -0.000017  -0.001142   0.000643   0.004787  -0.096225   0.013264
    10  O   -0.000002   0.000067   0.002050   0.017699  -0.095395   0.008183
    11  O   -0.000003  -0.000239  -0.000330   0.001418  -0.097096   0.022553
    12  C    0.000010   0.000658  -0.000585  -0.000841  -0.003428   0.004838
    13  N   -0.000004  -0.000141  -0.000212  -0.001683   0.013576  -0.002724
    14  C    0.000000   0.000013   0.000001  -0.000939  -0.000411  -0.000000
    15  C   -0.000009  -0.000038   0.000456   0.001228  -0.000957  -0.000144
    16  O    0.000000   0.000049  -0.000049   0.000374  -0.001775   0.000873
    17  H    0.000000  -0.000012   0.000025  -0.000781   0.001974   0.001085
    18  C    0.000055  -0.000566  -0.000568  -0.006876  -0.000081   0.000325
    19  C   -0.000029   0.000351  -0.001229   0.001780  -0.000137  -0.000004
    20  H    0.426407  -0.057396  -0.006618   0.002180  -0.000025  -0.000666
    21  H    0.385182  -0.025369  -0.002860  -0.001280   0.000401  -0.000976
    22  H    0.426336  -0.058343   0.006654  -0.000774   0.000179   0.001129
    23  H   -0.007433  -0.057669   0.438259  -0.054559   0.011710  -0.002957
    24  H   -0.000218   0.009056  -0.057310   0.425356  -0.035377   0.008486
    25  H   -0.000269   0.010670  -0.001945   0.011496  -0.067398   0.429980
    26  H   -0.007108  -0.059999   0.011402  -0.002811   0.013400  -0.053518
    27  H    0.000001   0.000094  -0.000401   0.001306  -0.000931  -0.000068
    28  H   -0.000000  -0.000000  -0.000000  -0.000041   0.000132  -0.000010
    29  H   -0.000000  -0.000000  -0.000010  -0.000086   0.000133   0.000003
    30  H   -0.000000  -0.000001  -0.000007  -0.000007   0.000012  -0.000003
    31  H    0.000003   0.000025  -0.000109   0.000075   0.000070   0.000166
    32  H   -0.000097  -0.000449   0.003899   0.002026   0.001010  -0.000621
    33  H   -0.000001  -0.000003  -0.000022  -0.000114   0.000131  -0.000010
    34  H   -0.000025   0.000202  -0.000106   0.000091  -0.000004  -0.000019
    35  H   -0.000027   0.000055  -0.000015   0.000060   0.000004  -0.000006
    36  H    0.000000  -0.000009   0.000054  -0.000030   0.000001  -0.000000
               7          8          9         10         11         12
     1  C   -0.076334  -0.000010  -0.000017  -0.000002  -0.000003   0.000010
     2  C    0.408059  -0.001177  -0.001142   0.000067  -0.000239   0.000658
     3  C   -0.018778   0.004151   0.000643   0.002050  -0.000330  -0.000585
     4  C   -0.062909  -0.038292   0.004787   0.017699   0.001418  -0.000841
     5  C    0.050442   0.297623  -0.096225  -0.095395  -0.097096  -0.003428
     6  C    0.337162  -0.009311   0.013264   0.008183   0.022553   0.004838
     7  C    5.127406   0.007162   0.005270  -0.000851   0.003450  -0.000775
     8  S    0.007162  13.460103   0.307381   0.545888   0.618056  -0.007409
     9  N    0.005270   0.307381   6.688122  -0.049729  -0.046226   0.338779
    10  O   -0.000851   0.545888  -0.049729   8.080486  -0.043977  -0.006644
    11  O    0.003450   0.618056  -0.046226  -0.043977   7.971933  -0.001604
    12  C   -0.000775  -0.007409   0.338779  -0.006644  -0.001604   4.378558
    13  N   -0.000077   0.004162  -0.106369  -0.017363  -0.000582   0.366014
    14  C   -0.000005   0.001233   0.005382   0.003483   0.000004  -0.041551
    15  C    0.000135  -0.000097  -0.001317  -0.000226  -0.000001  -0.006249
    16  O   -0.000163   0.000733  -0.102493  -0.000244  -0.000181   0.700425
    17  H    0.000139  -0.016254   0.338531   0.002400   0.002477  -0.021677
    18  C    0.000118  -0.000077  -0.000080   0.000056  -0.000000   0.002250
    19  C   -0.000058   0.000011  -0.000012   0.000004   0.000000  -0.000088
    20  H    0.006151   0.000001  -0.000000   0.000000   0.000000  -0.000001
    21  H   -0.002312  -0.000001   0.000000  -0.000000  -0.000000   0.000000
    22  H   -0.005137   0.000001   0.000000   0.000000   0.000000  -0.000000
    23  H    0.011824  -0.000082   0.000023  -0.000017   0.000007  -0.000011
    24  H   -0.002569  -0.006664   0.000723   0.014493   0.000316  -0.000117
    25  H   -0.046936  -0.000263   0.002238   0.000439   0.008972  -0.000141
    26  H    0.436998  -0.000161   0.000059   0.000004  -0.000025  -0.000017
    27  H   -0.000061  -0.003742  -0.002070   0.018380   0.000338  -0.021727
    28  H    0.000000  -0.000052   0.001313  -0.000080   0.000001  -0.006477
    29  H    0.000000  -0.000015   0.000131   0.000085   0.000000   0.007329
    30  H    0.000001   0.000003  -0.000003   0.000001  -0.000000   0.000261
    31  H   -0.000049  -0.000018  -0.000060   0.000008   0.000000   0.002502
    32  H    0.000042   0.000082   0.000057   0.000067   0.000002   0.000689
    33  H    0.000004   0.000012  -0.000001   0.000004   0.000000  -0.000297
    34  H    0.000055   0.000000   0.000000   0.000000  -0.000000  -0.000082
    35  H    0.000014  -0.000000  -0.000000   0.000000   0.000000   0.000007
    36  H    0.000000  -0.000000   0.000000  -0.000000  -0.000000   0.000008
              13         14         15         16         17         18
     1  C   -0.000004   0.000000  -0.000009   0.000000   0.000000   0.000055
     2  C   -0.000141   0.000013  -0.000038   0.000049  -0.000012  -0.000566
     3  C   -0.000212   0.000001   0.000456  -0.000049   0.000025  -0.000568
     4  C   -0.001683  -0.000939   0.001228   0.000374  -0.000781  -0.006876
     5  C    0.013576  -0.000411  -0.000957  -0.001775   0.001974  -0.000081
     6  C   -0.002724  -0.000000  -0.000144   0.000873   0.001085   0.000325
     7  C   -0.000077  -0.000005   0.000135  -0.000163   0.000139   0.000118
     8  S    0.004162   0.001233  -0.000097   0.000733  -0.016254  -0.000077
     9  N   -0.106369   0.005382  -0.001317  -0.102493   0.338531  -0.000080
    10  O   -0.017363   0.003483  -0.000226  -0.000244   0.002400   0.000056
    11  O   -0.000582   0.000004  -0.000001  -0.000181   0.002477  -0.000000
    12  C    0.366014  -0.041551  -0.006249   0.700425  -0.021677   0.002250
    13  N    6.706644   0.261046  -0.098061  -0.119651   0.008315   0.016055
    14  C    0.261046   4.840693   0.292402   0.004015  -0.000235  -0.054146
    15  C   -0.098061   0.292402   5.160582  -0.008874   0.000078   0.272091
    16  O   -0.119651   0.004015  -0.008874   7.878587   0.007475   0.000665
    17  H    0.008315  -0.000235   0.000078   0.007475   0.422555  -0.000011
    18  C    0.016055  -0.054146   0.272091   0.000665  -0.000011   5.053465
    19  C   -0.000849   0.012681  -0.056266   0.000034   0.000000   0.294428
    20  H    0.000000  -0.000000   0.000001  -0.000000   0.000000  -0.000021
    21  H    0.000000   0.000000   0.000000  -0.000000  -0.000000  -0.000001
    22  H   -0.000000  -0.000000  -0.000000   0.000000   0.000000   0.000003
    23  H    0.000009  -0.000004   0.000017  -0.000000   0.000000   0.000204
    24  H    0.000920  -0.000109  -0.000299  -0.000000  -0.000062  -0.000857
    25  H   -0.000089  -0.000003  -0.000002  -0.000073   0.000070   0.000003
    26  H    0.000002  -0.000000   0.000001  -0.000001  -0.000010  -0.000001
    27  H    0.352113  -0.022938  -0.000253   0.004113  -0.000483   0.001850
    28  H   -0.030086   0.416718  -0.057447   0.012815  -0.000057   0.011894
    29  H   -0.040263   0.425212  -0.056559   0.001127   0.000014  -0.008230
    30  H    0.007532  -0.034471   0.394162  -0.000206  -0.000000  -0.041297
    31  H   -0.003771  -0.031384   0.405393   0.007839  -0.000002  -0.033617
    32  H    0.008369  -0.010171  -0.045770  -0.000258   0.000000   0.411252
    33  H    0.001249   0.001157  -0.048314  -0.000037   0.000000   0.403090
    34  H    0.000369  -0.000282  -0.005908  -0.000036   0.000000  -0.041172
    35  H    0.000110  -0.001023   0.013270  -0.000000  -0.000000  -0.051360
    36  H   -0.000067   0.000233  -0.006884   0.000001  -0.000000  -0.042427
              19         20         21         22         23         24
     1  C   -0.000029   0.426407   0.385182   0.426336  -0.007433  -0.000218
     2  C    0.000351  -0.057396  -0.025369  -0.058343  -0.057669   0.009056
     3  C   -0.001229  -0.006618  -0.002860   0.006654   0.438259  -0.057310
     4  C    0.001780   0.002180  -0.001280  -0.000774  -0.054559   0.425356
     5  C   -0.000137  -0.000025   0.000401   0.000179   0.011710  -0.035377
     6  C   -0.000004  -0.000666  -0.000976   0.001129  -0.002957   0.008486
     7  C   -0.000058   0.006151  -0.002312  -0.005137   0.011824  -0.002569
     8  S    0.000011   0.000001  -0.000001   0.000001  -0.000082  -0.006664
     9  N   -0.000012  -0.000000   0.000000   0.000000   0.000023   0.000723
    10  O    0.000004   0.000000  -0.000000   0.000000  -0.000017   0.014493
    11  O    0.000000   0.000000  -0.000000   0.000000   0.000007   0.000316
    12  C   -0.000088  -0.000001   0.000000  -0.000000  -0.000011  -0.000117
    13  N   -0.000849   0.000000   0.000000  -0.000000   0.000009   0.000920
    14  C    0.012681  -0.000000   0.000000  -0.000000  -0.000004  -0.000109
    15  C   -0.056266   0.000001   0.000000  -0.000000   0.000017  -0.000299
    16  O    0.000034  -0.000000  -0.000000   0.000000  -0.000000  -0.000000
    17  H    0.000000   0.000000  -0.000000   0.000000   0.000000  -0.000062
    18  C    0.294428  -0.000021  -0.000001   0.000003   0.000204  -0.000857
    19  C    4.924836   0.000053  -0.000000  -0.000001  -0.000031   0.000091
    20  H    0.000053   0.558812  -0.025828  -0.027066   0.001789  -0.000028
    21  H   -0.000000  -0.025828   0.565976  -0.025561   0.000614   0.000012
    22  H   -0.000001  -0.027066  -0.025561   0.558549   0.000034   0.000010
    23  H   -0.000031   0.001789   0.000614   0.000034   0.548019  -0.006089
    24  H    0.000091  -0.000028   0.000012   0.000010  -0.006089   0.498114
    25  H   -0.000000   0.000014   0.000006  -0.000031   0.000053  -0.000139
    26  H   -0.000000   0.000011   0.000617   0.001865  -0.000167   0.000055
    27  H    0.000035  -0.000000   0.000000  -0.000000  -0.000017   0.000532
    28  H   -0.000596   0.000000   0.000000  -0.000000   0.000000   0.000003
    29  H   -0.000638  -0.000000   0.000000   0.000000  -0.000000   0.000051
    30  H   -0.003670   0.000000   0.000000  -0.000000   0.000000   0.000002
    31  H   -0.007469  -0.000000  -0.000000   0.000000  -0.000004   0.000025
    32  H   -0.034266  -0.000001   0.000003  -0.000002  -0.000055   0.000444
    33  H   -0.037199   0.000000   0.000000  -0.000000   0.000006   0.000138
    34  H    0.411378   0.000007   0.000002  -0.000003  -0.000003   0.000023
    35  H    0.412990   0.000035   0.000001  -0.000001   0.000264   0.000009
    36  H    0.409252  -0.000001   0.000000  -0.000000   0.000000  -0.000003
              25         26         27         28         29         30
     1  C   -0.000269  -0.007108   0.000001  -0.000000  -0.000000  -0.000000
     2  C    0.010670  -0.059999   0.000094  -0.000000  -0.000000  -0.000001
     3  C   -0.001945   0.011402  -0.000401  -0.000000  -0.000010  -0.000007
     4  C    0.011496  -0.002811   0.001306  -0.000041  -0.000086  -0.000007
     5  C   -0.067398   0.013400  -0.000931   0.000132   0.000133   0.000012
     6  C    0.429980  -0.053518  -0.000068  -0.000010   0.000003  -0.000003
     7  C   -0.046936   0.436998  -0.000061   0.000000   0.000000   0.000001
     8  S   -0.000263  -0.000161  -0.003742  -0.000052  -0.000015   0.000003
     9  N    0.002238   0.000059  -0.002070   0.001313   0.000131  -0.000003
    10  O    0.000439   0.000004   0.018380  -0.000080   0.000085   0.000001
    11  O    0.008972  -0.000025   0.000338   0.000001   0.000000  -0.000000
    12  C   -0.000141  -0.000017  -0.021727  -0.006477   0.007329   0.000261
    13  N   -0.000089   0.000002   0.352113  -0.030086  -0.040263   0.007532
    14  C   -0.000003  -0.000000  -0.022938   0.416718   0.425212  -0.034471
    15  C   -0.000002   0.000001  -0.000253  -0.057447  -0.056559   0.394162
    16  O   -0.000073  -0.000001   0.004113   0.012815   0.001127  -0.000206
    17  H    0.000070  -0.000010  -0.000483  -0.000057   0.000014  -0.000000
    18  C    0.000003  -0.000001   0.001850   0.011894  -0.008230  -0.041297
    19  C   -0.000000  -0.000000   0.000035  -0.000596  -0.000638  -0.003670
    20  H    0.000014   0.000011  -0.000000   0.000000  -0.000000   0.000000
    21  H    0.000006   0.000617   0.000000   0.000000   0.000000   0.000000
    22  H   -0.000031   0.001865  -0.000000  -0.000000   0.000000  -0.000000
    23  H    0.000053  -0.000167  -0.000017   0.000000  -0.000000   0.000000
    24  H   -0.000139   0.000055   0.000532   0.000003   0.000051   0.000002
    25  H    0.534752  -0.007221  -0.000016   0.000000   0.000000  -0.000000
    26  H   -0.007221   0.549302  -0.000000  -0.000000  -0.000000   0.000000
    27  H   -0.000016  -0.000000   0.431742   0.004321  -0.009208  -0.000350
    28  H    0.000000  -0.000000   0.004321   0.558298  -0.023732  -0.003251
    29  H    0.000000  -0.000000  -0.009208  -0.023732   0.578254  -0.000218
    30  H   -0.000000   0.000000  -0.000350  -0.003251  -0.000218   0.617370
    31  H    0.000001  -0.000001   0.000370  -0.002212   0.006011  -0.027332
    32  H   -0.000007   0.000004  -0.001350   0.000001   0.001043   0.009500
    33  H   -0.000000   0.000000   0.000164   0.000421   0.004272  -0.006418
    34  H   -0.000000   0.000000   0.000010   0.000043   0.000011  -0.000038
    35  H   -0.000000   0.000000  -0.000004   0.000024   0.000023  -0.000114
    36  H    0.000000  -0.000000  -0.000006  -0.000042   0.000075   0.004945
              31         32         33         34         35         36
     1  C    0.000003  -0.000097  -0.000001  -0.000025  -0.000027   0.000000
     2  C    0.000025  -0.000449  -0.000003   0.000202   0.000055  -0.000009
     3  C   -0.000109   0.003899  -0.000022  -0.000106  -0.000015   0.000054
     4  C    0.000075   0.002026  -0.000114   0.000091   0.000060  -0.000030
     5  C    0.000070   0.001010   0.000131  -0.000004   0.000004   0.000001
     6  C    0.000166  -0.000621  -0.000010  -0.000019  -0.000006  -0.000000
     7  C   -0.000049   0.000042   0.000004   0.000055   0.000014   0.000000
     8  S   -0.000018   0.000082   0.000012   0.000000  -0.000000  -0.000000
     9  N   -0.000060   0.000057  -0.000001   0.000000  -0.000000   0.000000
    10  O    0.000008   0.000067   0.000004   0.000000   0.000000  -0.000000
    11  O    0.000000   0.000002   0.000000  -0.000000   0.000000  -0.000000
    12  C    0.002502   0.000689  -0.000297  -0.000082   0.000007   0.000008
    13  N   -0.003771   0.008369   0.001249   0.000369   0.000110  -0.000067
    14  C   -0.031384  -0.010171   0.001157  -0.000282  -0.001023   0.000233
    15  C    0.405393  -0.045770  -0.048314  -0.005908   0.013270  -0.006884
    16  O    0.007839  -0.000258  -0.000037  -0.000036  -0.000000   0.000001
    17  H   -0.000002   0.000000   0.000000   0.000000  -0.000000  -0.000000
    18  C   -0.033617   0.411252   0.403090  -0.041172  -0.051360  -0.042427
    19  C   -0.007469  -0.034266  -0.037199   0.411378   0.412990   0.409252
    20  H   -0.000000  -0.000001   0.000000   0.000007   0.000035  -0.000001
    21  H   -0.000000   0.000003   0.000000   0.000002   0.000001   0.000000
    22  H    0.000000  -0.000002  -0.000000  -0.000003  -0.000001  -0.000000
    23  H   -0.000004  -0.000055   0.000006  -0.000003   0.000264   0.000000
    24  H    0.000025   0.000444   0.000138   0.000023   0.000009  -0.000003
    25  H    0.000001  -0.000007  -0.000000  -0.000000  -0.000000   0.000000
    26  H   -0.000001   0.000004   0.000000   0.000000   0.000000  -0.000000
    27  H    0.000370  -0.001350   0.000164   0.000010  -0.000004  -0.000006
    28  H   -0.002212   0.000001   0.000421   0.000043   0.000024  -0.000042
    29  H    0.006011   0.001043   0.004272   0.000011   0.000023   0.000075
    30  H   -0.027332   0.009500  -0.006418  -0.000038  -0.000114   0.004945
    31  H    0.567169  -0.006393   0.007955   0.005116  -0.000191   0.000153
    32  H   -0.006393   0.613860  -0.039729  -0.008222  -0.004972   0.009772
    33  H    0.007955  -0.039729   0.638169   0.009052  -0.004972  -0.006449
    34  H    0.005116  -0.008222   0.009052   0.581673  -0.027367  -0.028989
    35  H   -0.000191  -0.004972  -0.004972  -0.027367   0.586955  -0.026634
    36  H    0.000153   0.009772  -0.006449  -0.028989  -0.026634   0.583500
 Mulliken charges:
               1
     1  C   -0.356358
     2  C    0.161590
     3  C   -0.157674
     4  C   -0.141557
     5  C    0.028817
     6  C   -0.152261
     7  C   -0.177418
     8  S    0.837023
     9  N   -0.300958
    10  O   -0.479271
    11  O   -0.439266
    12  C    0.317394
    13  N   -0.324495
    14  C   -0.066601
    15  C   -0.146142
    16  O   -0.385084
    17  H    0.254444
    18  C   -0.186417
    19  C   -0.325382
    20  H    0.122190
    21  H    0.131374
    22  H    0.122160
    23  H    0.116264
    24  H    0.150984
    25  H    0.125837
    26  H    0.117322
    27  H    0.248256
    28  H    0.118098
    29  H    0.115184
    30  H    0.083597
    31  H    0.109730
    32  H    0.090239
    33  H    0.077742
    34  H    0.104224
    35  H    0.102870
    36  H    0.103546
 Sum of Mulliken charges =  -0.00000
 Mulliken charges with hydrogens summed into heavy atoms:
               1
     1  C    0.019365
     2  C    0.161590
     3  C   -0.041410
     4  C    0.009427
     5  C    0.028817
     6  C   -0.026424
     7  C   -0.060096
     8  S    0.837023
     9  N   -0.046514
    10  O   -0.479271
    11  O   -0.439266
    12  C    0.317394
    13  N   -0.076239
    14  C    0.166681
    15  C    0.047185
    16  O   -0.385084
    18  C   -0.018436
    19  C   -0.014742
 Electronic spatial extent (au):  <R**2>=           5309.1574
 Charge=             -0.0000 electrons
 Dipole moment (field-independent basis, Debye):
    X=              2.4574    Y=              4.1694    Z=             -0.3698  Tot=              4.8538
 Quadrupole moment (field-independent basis, Debye-Ang):
   XX=           -108.4574   YY=           -121.9283   ZZ=           -119.9789
   XY=              3.5242   XZ=             10.8827   YZ=             -7.0805
 Traceless Quadrupole moment (field-independent basis, Debye-Ang):
   XX=              8.3308   YY=             -5.1401   ZZ=             -3.1907
   XY=              3.5242   XZ=             10.8827   YZ=             -7.0805
 Octapole moment (field-independent basis, Debye-Ang**2):
  XXX=              7.9037  YYY=              4.9329  ZZZ=             -9.2900  XYY=             -9.8814
  XXY=             24.9694  XXZ=             -9.7840  XZZ=             22.3740  YZZ=             -2.1770
  YYZ=             17.6190  XYZ=             -7.4409
 Hexadecapole moment (field-independent basis, Debye-Ang**3):
 XXXX=          -3401.2294 YYYY=          -3059.9957 ZZZZ=           -742.8703 XXXY=             26.6154
 XXXZ=             93.9095 YYYX=             83.3855 YYYZ=            -59.1533 ZZZX=             49.9608
 ZZZY=             -8.5128 XXYY=          -1049.6668 XXZZ=           -726.4448 YYZZ=           -590.9513
 XXYZ=             15.4507 YYXZ=             -3.0909 ZZXY=            -15.7532
 N-N= 1.559716372127D+03 E-N=-5.938305527897D+03  KE= 1.197032622655D+03
   1 Symmetry operations used in ECPInt.
 ECPInt:  NShTT=   37128 NPrTT=  113514 LenC2=   33239 LenP2D=   72182.
 LDataN:  DoStor=T MaxTD1= 7 Len=  274
 Calling FoFJK, ICntrl=      2127 FMM=F ISym2X=0 I1Cent= 0 IOpClX= 0 NMat=1 NMatS=1 NMatT=0.
 ***** Axes restored to original set *****
 -------------------------------------------------------------------
 Center     Atomic                   Forces (Hartrees/Bohr)
 Number     Number              X              Y              Z
 -------------------------------------------------------------------
      1        6          -0.002760324    0.004171171    0.003402198
      2        6           0.000823785   -0.001301438   -0.003434022
      3        6          -0.001745936   -0.006482358    0.005026616
      4        6           0.002240627    0.003409317    0.000388300
      5        6           0.005455821    0.004313918   -0.004842307
      6        6           0.003936270    0.004403214    0.000835949
      7        6          -0.007570502   -0.004428742   -0.004445241
      8       16           0.015569781   -0.000343935   -0.008450541
      9        7           0.010451031   -0.022659076   -0.002238432
     10        8           0.005576307   -0.005142092    0.007855326
     11        8          -0.014369199    0.009716834   -0.000149976
     12        6          -0.026294090    0.018506150    0.003886122
     13        7           0.014290971   -0.014185416   -0.011919354
     14        6          -0.006279769    0.001263984    0.010198755
     15        6           0.000143898    0.001418103   -0.006351066
     16        8           0.002677599   -0.000649118   -0.002205909
     17        1          -0.002359773    0.004072103   -0.001465771
     18        6          -0.001056406    0.002033754    0.003978849
     19        6           0.003607607    0.003395015   -0.002754212
     20        1           0.002986998   -0.002492312   -0.000608186
     21        1           0.000145602    0.002475096    0.001313664
     22        1           0.002061203   -0.001094548   -0.003168345
     23        1           0.000003991   -0.002336817    0.003166958
     24        1           0.001567954   -0.002799582    0.004386239
     25        1          -0.000447380    0.002342107   -0.003172448
     26        1          -0.002389309    0.000967927   -0.003024799
     27        1          -0.005424266    0.002769176    0.013530274
     28        1           0.001675453    0.000239730   -0.002204965
     29        1           0.001097364    0.000267775    0.002175939
     30        1           0.000704366   -0.000961602    0.000545976
     31        1          -0.002728657   -0.001573853   -0.002006721
     32        1          -0.001786610   -0.000651236   -0.000125532
     33        1          -0.000027933   -0.001328066    0.000248091
     34        1          -0.000995815    0.001121370   -0.001154020
     35        1          -0.000593877    0.001706055    0.002301916
     36        1           0.001813218   -0.000162609    0.000480670
 -------------------------------------------------------------------
 Cartesian Forces:  Max     0.026294090 RMS     0.006058178

 GradGradGradGradGradGradGradGradGradGradGradGradGradGradGradGradGradGrad
 Berny optimization.
 FormGI is forming the generalized inverse of G from B-inverse, IUseBI=4.
 Internal  Forces:  Max     0.023802774 RMS     0.004327345
 Search for a local minimum.
 Step number   1 out of a maximum of  192
 All quantities printed in internal units (Hartrees-Bohrs-Radians)
 Mixed Optimization -- RFO/linear search
 Second derivative matrix not updated -- first step.
 ITU=  0
     Eigenvalues ---    0.00372   0.00391   0.00497   0.00700   0.00752
     Eigenvalues ---    0.01080   0.01514   0.01555   0.01602   0.01886
     Eigenvalues ---    0.01951   0.01963   0.02060   0.02079   0.02102
     Eigenvalues ---    0.02109   0.02125   0.02132   0.02138   0.02142
     Eigenvalues ---    0.02211   0.03581   0.03712   0.04278   0.04871
     Eigenvalues ---    0.04918   0.05444   0.05607   0.05706   0.07302
     Eigenvalues ---    0.07320   0.08168   0.08283   0.09570   0.10813
     Eigenvalues ---    0.10988   0.12068   0.12167   0.12667   0.12878
     Eigenvalues ---    0.15890   0.15911   0.15999   0.16000   0.16000
     Eigenvalues ---    0.16000   0.16000   0.16000   0.16000   0.16000
     Eigenvalues ---    0.16000   0.16000   0.18650   0.21904   0.21921
     Eigenvalues ---    0.21984   0.21998   0.22021   0.22039   0.22973
     Eigenvalues ---    0.23990   0.24965   0.24994   0.24995   0.25000
     Eigenvalues ---    0.25000   0.28185   0.29443   0.29575   0.30334
     Eigenvalues ---    0.32269   0.34044   0.34047   0.34119   0.34153
     Eigenvalues ---    0.34223   0.34230   0.34232   0.34269   0.34288
     Eigenvalues ---    0.34295   0.34331   0.34345   0.34997   0.35002
     Eigenvalues ---    0.35120   0.35128   0.38744   0.41827   0.41905
     Eigenvalues ---    0.42570   0.43410   0.45202   0.45546   0.45782
     Eigenvalues ---    0.46210   0.46322   0.48142   0.52802   0.94721
     Eigenvalues ---    0.96379   0.97860
 RFO step:  Lambda=-1.18665073D-02 EMin= 3.71960083D-03
 Linear search not attempted -- first point.
 Iteration  1 RMS(Cart)=  0.28511292 RMS(Int)=  0.00595990
 Iteration  2 RMS(Cart)=  0.03185575 RMS(Int)=  0.00036218
 Iteration  3 RMS(Cart)=  0.00022605 RMS(Int)=  0.00035823
 Iteration  4 RMS(Cart)=  0.00000027 RMS(Int)=  0.00035823
 Variable       Old X    -DE/DX   Delta X   Delta X   Delta X     New X
[...]
 ,0.00061130,0.00024891,0.00000115,-0.00003079,-0.00001265,-0.01171501,
 0.00063135,-0.02287020,-0.00068880,-0.00107838,0.00088368,0.00000399,-
 0.00000136,-0.00000419,-0.00000541,0.00000092,0.00000104,0.00000475,-0
 .00000311,0.00000065,0.00000362,-0.00000500,-0.00001789,-0.00000579,0.
 00000744,-0.00003428,0.00000286,-0.00000307,-0.00000217,0.00000097,-0.
 00000101,-0.00000327,0.00003116,0.00006611,-0.00005718,0.00011353,-0.0
 0034533,0.00047482,-0.00022132,-0.00089587,0.00095584,0.00191136,0.000
 83999,0.00431763,0.12051527,0.00618718,0.25940344,-0.00001395,0.000014
 00,-0.00000459,0.00003777,-0.00000082,0.00000148,-0.00004833,0.0000836
 8,-0.00003034,-0.00010402,0.00015177,0.00012106,-0.00007456,-0.0000283
 6,-0.00003516,0.00001879,-0.00000766,0.00000697,-0.00002504,-0.0000160
 9,-0.00002184,0.00025261,-0.00026973,0.00033139,-0.00002525,0.00004626
 ,-0.00007549,-0.00015440,0.00021455,-0.00018510,-0.00007118,0.00012870
 ,-0.00008083,0.00039258,-0.00041072,0.00120340,0.00121145,0.00102743,-
 0.00111256,-0.00090527,0.00158069,0.00021618,-0.01740858,0.00791252,0.
 00351256,0.00013184,-0.00012925,-0.00072807,0.00000770,-0.00001484,0.0
 0002018,-0.22725549,0.10891215,0.02994947,0.00760278,-0.00501612,-0.00
 142239,0.00000074,-0.00000611,0.00000559,-0.00000825,-0.00000834,-0.00
 000027,-0.00000720,-0.00000469,-0.00000731,0.00000141,-0.00001048,0.00
 001157,0.00002779,0.00003691,-0.00007043,-0.00000155,0.00000400,-0.000
 00505,-0.00000986,0.00000145,-0.00000357,-0.00020503,-0.00099822,-0.00
 004948,0.00013118,-0.00008472,-0.00008370,-0.00003205,-0.00010185,-0.0
 0008794,-0.00049691,-0.00210914,0.00306340,0.00100454,-0.00021581,0.00
 006718,0.24883548,-0.00000041,0.00000407,-0.00000495,-0.00007922,-0.00
 003288,-0.00006275,0.00005307,0.00005886,-0.00007878,0.00007562,-0.000
 14787,0.00001936,0.00001505,0.00002599,-0.00002313,0.00002457,-0.00004
 706,0.00006455,-0.00000986,-0.00004650,0.00002920,0.00047087,0.0000655
 1,-0.00007612,-0.00031794,0.00014106,0.00007671,-0.00017294,0.00004150
 ,-0.00000615,-0.00010889,-0.00002565,0.00000450,0.00025724,-0.00053097
 ,0.00059018,-0.00005337,-0.00040145,-0.00030623,-0.00006692,0.00047081
 ,-0.00048419,-0.01298201,0.00778253,0.00199129,-0.00000743,0.00005125,
 -0.00023008,-0.00000120,0.00001025,0.00000700,0.10844970,-0.11210718,-
 0.01909783,0.02724050,-0.01970045,-0.00486583,-0.00000943,-0.00000848,
 -0.00000245,0.00000656,-0.00000170,-0.00000032,0.00000211,-0.00000158,
 0.00000842,-0.00011710,-0.00003687,0.00002957,0.00015200,0.00016269,0.
 00003684,0.00001134,-0.00000055,0.00001059,-0.00000023,-0.00001204,0.0
 0000662,-0.00009120,-0.00050553,0.00024811,0.00017747,0.00022742,-0.00
 002542,-0.00000330,0.00000528,-0.00005059,-0.00203483,-0.00106904,0.00
 234502,0.00060185,0.00044109,-0.00054344,-0.11827024,0.12810435,0.0000
 0394,-0.00000467,-0.00000121,-0.00005787,-0.00000918,-0.00003953,-0.00
 000137,-0.00006428,-0.00004382,0.00016027,-0.00003994,0.00002266,-0.00
 004051,0.00004125,-0.00011295,0.00002316,0.00001885,0.00001259,-0.0000
 1481,-0.00001503,0.00001538,0.00006986,0.00018802,0.00029617,0.0000048
 2,-0.00005932,-0.00007061,-0.00007636,0.00001635,-0.00017406,-0.000011
 06,-0.00006476,-0.00004371,-0.00005772,0.00038219,-0.00037522,-0.00084
 406,-0.00008018,0.00034419,-0.00001899,-0.00081293,0.00061981,0.022834
 68,-0.01244784,-0.00447632,-0.00007949,-0.00001926,0.00016049,0.000007
 91,0.00001483,-0.00001433,0.02873796,-0.01843691,-0.05494416,0.0063949
 9,-0.00453130,-0.00135996,-0.00000550,0.00000291,0.00000371,0.00000822
 ,0.00000031,0.00000041,-0.00000258,0.00000434,0.00000130,-0.00002964,0
 .00000665,0.00004459,0.00009176,-0.00006296,0.00013054,-0.00000409,0.0
 0000309,0.00000434,0.00000258,-0.00000223,0.00000148,0.00000306,0.0001
 4985,0.00018332,-0.00016041,-0.00014248,-0.00002193,0.00001155,0.00019
 841,-0.00001091,0.00303982,0.00239461,-0.00307594,-0.00050514,-0.00072
 437,0.00075432,-0.03592176,0.02054381,0.05704245,-0.00000156,0.0000004
 9,0.00000155,0.00004351,0.00000384,0.00003138,-0.00002629,0.00003701,0
 .00002272,-0.00003419,0.00005523,0.00008875,-0.00000249,-0.00003047,0.
 00006048,-0.00001104,0.00001520,-0.00003486,0.00000456,0.00002386,-0.0
 0001071,-0.00018502,-0.00016608,-0.00021904,0.00006071,0.00003616,0.00
 000896,0.00011136,0.00000223,0.00016603,0.00004048,0.00005766,0.000038
 18,-0.00010482,-0.00010567,0.00042175,0.00009911,0.00048121,-0.0001513
 2,0.00090790,0.00062489,0.00009891,0.00913969,-0.00054547,0.01688420,0
 .00009360,-0.00012190,-0.00015215,-0.00001273,-0.00000537,0.00000801,-
 0.11749727,-0.00126756,-0.11031732,-0.00444425,-0.00076532,-0.00636005
 ,0.00000757,0.00000094,-0.00000542,-0.00000794,0.00000276,-0.00000056,
 0.00000129,-0.00000375,-0.00000123,0.00003909,0.00000522,-0.00003584,0
 .00000722,-0.00007984,-0.00016705,-0.00000481,-0.00000144,-0.00000864,
 0.00000021,0.00000374,-0.00000424,-0.00010397,0.00005372,-0.00019440,0
 .00002371,0.00031314,0.00004851,-0.00000301,0.00019203,-0.00038057,0.0
 0109082,0.00052488,-0.00049878,-0.00099802,-0.00206483,0.00319631,-0.0
 1512367,-0.00073020,-0.02359417,0.12538532,0.00000374,-0.00000894,0.00
 000489,-0.00002534,-0.00000168,-0.00001032,0.00000711,-0.00002405,0.00
 001291,-0.00000197,-0.00003319,-0.00004784,0.00001832,0.00002501,-0.00
 003534,0.00000270,-0.00000187,0.00001016,0.00000311,-0.00000773,0.0000
 0821,0.00003152,0.00005426,0.00015424,0.00004791,-0.00002084,-0.000075
 72,-0.00005401,0.00001318,-0.00009058,-0.00000260,-0.00002134,-0.00002
 686,-0.00008176,0.00011539,0.00013314,-0.00019530,-0.00034547,-0.00016
 066,0.00137484,0.00123786,0.00105938,0.00729605,-0.00113480,0.01319966
 ,0.00001597,-0.00012817,-0.00011354,-0.00000030,0.00001100,-0.00000192
 ,-0.00060307,-0.04765389,-0.00380746,-0.01852375,-0.00289121,-0.028647
 34,0.00000228,0.00000370,-0.00000588,0.00000183,0.00000545,0.00000110,
 0.00000432,0.00000051,0.00000284,-0.00000573,-0.00000309,-0.00000678,-
 0.00000177,0.00004020,0.00007687,0.00000204,0.00000089,0.00000378,0.00
 000118,-0.00000209,0.00000060,0.00007031,-0.00006864,0.00012398,-0.000
 07337,0.00015141,-0.00015639,-0.00034575,-0.00014975,-0.00051464,-0.00
 016809,0.00039764,-0.00077070,-0.00206298,-0.00082551,0.00203029,0.008
 51542,0.00023992,0.01460184,0.00548838,0.05442451,-0.00000041,-0.00000
 156,0.00000086,0.00000686,0.00000471,0.00000435,-0.00000157,0.00000669
 ,0.00001116,-0.00002447,0.00000631,-0.00000559,-0.00000671,0.00000355,
 0.00004011,0.00000017,-0.00000030,0.00000447,0.00000561,-0.00000205,0.
 00000580,0.00003754,-0.00005917,-0.00027486,-0.00014372,0.00008825,0.0
 0014862,0.00003970,-0.00001547,0.00013176,-0.00002089,0.00004316,0.000
 04785,0.00023990,-0.00027869,-0.00030277,-0.00003855,0.00028518,0.0001
 4064,-0.00090159,-0.00144204,0.00060715,-0.01243879,0.00110309,-0.0239
 4507,-0.00003201,0.00024237,0.00022919,-0.00000145,-0.00001997,-0.0000
 0153,-0.10947449,-0.00455227,-0.22618651,-0.00382700,-0.00091163,-0.00
 582273,0.00000375,0.00000032,-0.00000456,-0.00000377,0.00000261,0.0000
 0105,0.00000449,-0.00000205,0.00000120,0.00000492,-0.00000393,-0.00001
 259,-0.00000314,-0.00000336,-0.00002270,0.00000286,-0.00000268,-0.0000
 0197,0.00000161,-0.00000105,-0.00000264,-0.00005740,0.00009887,-0.0001
 5494,0.00028918,-0.00011474,0.00034053,0.00050773,0.00099734,0.0006945
 7,0.00016410,-0.00064549,0.00082555,0.00345561,0.00211366,-0.00250944,
 0.00170185,0.00092269,0.00432065,0.12016595,0.00386191,0.24999555,0.00
 000070,0.00000572,-0.00000665,-0.00001765,-0.00000599,-0.00001267,0.00
 003027,0.,-0.00002115,-0.00000716,-0.00000404,-0.00002404,0.00000040,0
 .00000169,0.00000932,0.00000326,-0.00000961,0.00001438,-0.00000252,-0.
 00000591,0.00000777,0.00006063,0.00005597,-0.00009176,-0.00006208,0.00
 001731,0.00005783,-0.00000525,-0.00002806,0.00003426,-0.00001354,-0.00
 002203,0.00001902,0.00005526,-0.00003484,-0.00020997,-0.00006549,-0.00
 006643,0.00008643,0.00014248,-0.00016405,0.00030262,0.00002430,0.00073
 362,-0.00080225,-0.00003380,0.00006298,0.00014369,0.00000087,-0.000000
 72,-0.00000646,-0.00451815,-0.00062387,-0.00586355,-0.12390103,-0.0054
 6059,-0.11687100,-0.00000597,-0.00000340,0.00000177,0.00000316,-0.0000
 0190,0.00000062,0.00000219,-0.00000016,0.00000358,-0.00004305,0.000004
 64,0.00002588,-0.00000665,0.00002087,0.00001677,0.00000273,-0.00000216
 ,0.00000050,0.00000334,-0.00000357,0.00000151,0.00001878,0.00005549,-0
 .00001867,-0.00000328,-0.00005514,0.00001410,0.00007154,0.00018238,0.0
 0007454,-0.00007019,-0.00002124,-0.00008484,0.00001998,-0.00043733,0.0
 0049547,0.00064496,-0.00018733,0.00055212,0.00091522,-0.00156850,0.000
 03055,0.13090894,-0.00000322,0.00000673,-0.00000186,0.00003777,0.00001
 153,0.00002724,-0.00002454,0.00002428,0.00001626,-0.00002374,0.0000016
 0,-0.00000083,0.00000342,-0.00001158,0.00002625,-0.00000615,0.00000275
 ,-0.00000926,0.00000424,0.00000523,-0.00000061,-0.00007954,-0.00006454
 ,-0.00009148,0.00002748,0.00000751,0.00002847,0.00004906,-0.00000375,0
 .00005707,0.00001469,0.00002661,0.00001507,-0.00003906,-0.00002229,-0.
 00012667,0.00005413,-0.00001535,0.00009247,0.00011902,-0.00015957,-0.0
 0006101,0.00032893,0.00182479,-0.00136648,0.00002318,0.00003399,0.0000
 8655,-0.00000348,-0.00001165,0.00000005,-0.01884349,-0.00229973,-0.028
 12836,-0.00470029,-0.04713025,-0.00719402,0.00000317,-0.00000021,0.000
 00249,-0.00000437,-0.00000239,0.00000028,0.00000086,-0.00000064,-0.000
 00277,0.00002739,0.00000362,-0.00001634,-0.00001067,-0.00001175,-0.000
 02539,-0.00000078,-0.00000157,-0.00000211,0.00000014,0.00000260,-0.000
 00303,-0.00002388,0.00005085,-0.00004718,0.00006164,0.00001784,0.00009
 047,0.00014301,0.00016517,0.00020109,-0.00001227,-0.00006290,0.0001314
 0,0.00010214,-0.00007087,0.00083771,0.00053308,0.00154983,0.00019567,-
 0.00181975,-0.00622572,-0.00133187,0.00739442,0.05219727,0.00000729,-0
 .00002243,0.00001661,0.00001563,0.00001391,0.00002649,-0.00002607,-0.0
 0002017,0.00007926,-0.00004856,-0.00001120,-0.00002035,0.00004408,0.00
 002052,0.00002161,-0.00000801,0.00002401,-0.00002626,0.00001701,0.0000
 1598,0.00000187,-0.00032466,-0.00009243,-0.00004571,0.00019585,-0.0000
 7095,-0.00002755,0.00013178,-0.00001255,0.00006817,0.00007693,0.000026
 56,0.00001153,-0.00021693,0.00020175,-0.00022493,0.00010027,-0.0001793
 4,0.00013550,0.00006618,0.00008817,0.00030631,0.00069626,0.00052994,0.
 00078571,0.00006718,-0.00004968,0.00010617,-0.00000452,-0.00001197,-0.
 00000519,-0.00382653,-0.00104642,-0.00685253,-0.11718023,-0.00832373,-
 0.22832972,0.00001614,0.00001181,-0.00001672,-0.00000609,0.00001478,0.
 00000135,0.00000904,-0.00000069,0.00000135,0.00004923,0.00000767,-0.00
 006964,-0.00001927,-0.00001466,-0.00001939,-0.00000336,-0.00000061,-0.
 00000280,0.00000294,0.00000324,-0.00000436,-0.00002715,0.00005548,-0.0
 0000164,-0.00000251,-0.00008160,0.00000607,0.00007764,0.00018857,-0.00
 006130,-0.00000091,-0.00003022,-0.00000206,-0.00036610,-0.00030872,0.0
 0060161,0.00036614,-0.00018499,0.00005818,0.00029086,-0.00165441,0.000
 99949,0.13038642,0.01078234,0.24774270,0.00000381,0.00000176,-0.000002
 20,-0.00001716,-0.00001264,-0.00000645,0.00001766,0.00001441,-0.000007
 83,0.00000762,-0.00001426,-0.00000828,0.00001623,0.00000225,-0.0000142
 3,0.00000070,0.00000289,-0.00000092,0.00000229,0.00000299,0.00000275,-
 0.00015183,0.00006105,0.00010609,0.00015479,-0.00010708,-0.00003763,0.
 00005131,-0.00002719,-0.00003752,0.00004636,-0.00004934,-0.00001352,-0
 .00017386,0.00020914,-0.00027648,0.00015055,-0.00031357,0.00009260,0.0
 0003319,0.00018159,0.00075733,0.00035898,-0.00178371,-0.00129970,0.000
 03401,-0.00005316,0.00011040,0.00000791,0.00000357,-0.00001038,-0.0045
 8916,-0.00198461,0.00482276,-0.12012562,-0.05652553,0.10192216,-0.0000
 0503,0.00000011,0.00000058,0.00000519,-0.00000019,0.00000059,0.0000015
 0,0.00000144,0.00000276,-0.00001822,0.00000438,0.00000960,-0.00000979,
 0.00001183,0.00002125,-0.00000267,-0.00000015,0.00000010,0.00000247,-0
 .00000119,0.00000367,-0.00000607,0.00000715,0.00005644,-0.00006012,-0.
 00018100,-0.00004037,0.00000701,0.00003349,-0.00003862,0.00046126,0.00
 017074,-0.00030131,0.00003017,-0.00002223,0.00025683,0.00061494,-0.000
 00688,-0.00039438,-0.00018784,0.00015751,-0.00005403,0.01047567,0.0081
 2822,-0.01320542,0.12706884,0.00000652,-0.00001167,0.00000467,0.000019
 59,0.00002476,0.00001089,-0.00002769,-0.00006346,0.00003502,0.00005026
 ,0.00000384,0.00002511,0.00002257,0.00000247,-0.00003007,-0.00000829,0
 .00003792,-0.00003483,0.00000172,0.00002125,-0.00001173,-0.00044958,-0
 .00005405,0.00023633,0.00036954,-0.00020687,-0.00011978,0.00015173,0.0
 0000366,-0.00006366,0.00011603,-0.00001036,-0.00003493,-0.00037762,0.0
 0046792,-0.00035904,0.00033510,-0.00015862,0.00015640,-0.00158252,0.00
 003263,0.00185481,-0.00024981,-0.00592100,-0.00378089,0.00012654,-0.00
 013496,0.00011836,0.00000824,-0.00000787,-0.00001409,-0.01687784,-0.01
 285039,0.02501581,-0.05585862,-0.09044482,0.07864089,0.00000565,0.0000
 0960,0.00000127,0.00000020,0.00000432,0.00000131,-0.00000100,0.0000038
 3,-0.00000447,0.00005852,0.00002471,-0.00000386,-0.00002461,-0.0000614
 6,0.00001322,-0.00001050,0.00000151,-0.00000475,0.00000084,0.00000762,
 -0.00000164,-0.00004826,-0.00001721,0.00011022,-0.00017330,-0.00071369
 ,-0.00016932,0.00000591,0.00001988,-0.00007517,-0.00020845,0.00016802,
 -0.00015109,0.00030352,0.00011501,-0.00015505,0.00083202,0.00108262,0.
 00035653,-0.00000986,0.00136886,-0.00033687,0.00140993,-0.00012056,-0.
 00079129,0.06363794,0.09969587,-0.00001093,0.00002586,-0.00001525,0.00
 000341,-0.00001757,0.00000255,0.00001505,0.00007086,-0.00005705,-0.000
 00373,0.00000359,0.00000988,-0.00003526,-0.00002188,0.00000961,0.00000
 397,-0.00002542,0.00002269,-0.00000819,-0.00001418,0.00000822,0.000272
 80,0.00002199,-0.00008433,-0.00019138,0.00009510,0.00006817,-0.0000947
 5,0.00000963,0.00000460,-0.00007074,0.00000664,0.00001095,0.00020626,-
 0.00024116,0.00010059,-0.00013376,0.00020095,-0.00008385,-0.00003307,-
 0.00062346,0.00044689,-0.00026401,-0.00094700,0.00011331,-0.00005260,0
 .00009781,-0.00001067,-0.00000157,-0.00000103,0.00000247,-0.00578824,-
 0.00433975,0.00685602,0.10248056,0.08001855,-0.19090167,-0.00000597,-0
 .00001120,0.00000377,-0.00000086,-0.00000791,0.00000013,0.00000124,-0.
 00000535,0.00000327,-0.00004138,-0.00000635,0.00002413,0.00002286,0.00
 002100,-0.00000665,0.00000507,-0.00000231,0.00000051,0.00000055,-0.000
 00528,0.00000027,0.00003044,-0.00002815,-0.00003028,-0.00004057,-0.000
 10534,-0.00001528,0.00002542,0.00012707,0.00001781,-0.00007998,-0.0000
 5577,-0.00008984,0.00002271,-0.00028705,0.00040429,-0.00007328,0.00076
 025,0.00027486,0.00011348,0.00062972,0.00071067,0.01495368,0.01050894,
 -0.01978527,-0.11277072,-0.08660518,0.20508942,-0.00000118,-0.00000959
 ,0.00000834,0.00004088,0.00002633,0.00002456,-0.00004235,-0.00003402,0
 .00003805,0.00000398,0.00000651,0.00001155,0.00000440,0.00000530,0.000
 00662,-0.00000815,0.00001406,-0.00001992,0.00000416,0.00000919,-0.0000
 0453,-0.00009926,-0.00013226,0.00000686,0.00006278,0.00001595,-0.00001
 962,0.00003159,0.00003484,0.00001185,0.00001401,0.00006554,-0.00000564
 ,-0.00007195,-0.00002467,-0.00001897,-0.00002020,-0.00018335,0.0000993
 3,0.00032871,0.00008003,-0.00019331,0.00101323,-0.00027179,-0.00030823
 ,0.00002008,0.00002406,-0.00001267,-0.00000354,-0.00001177,0.00000699,
 0.00731459,-0.00469531,-0.00079438,-0.22582361,0.11573496,0.02832493,0
 .00001181,0.00000654,-0.00000380,-0.00000769,0.00000455,0.00000145,0.0
 0000181,-0.00000064,-0.00000555,0.00005439,0.00001063,-0.00003235,-0.0
 0001593,-0.00003237,-0.00001731,-0.00000188,0.00000046,-0.00000221,-0.
 00000240,0.00000510,-0.00000624,-0.00001419,0.00000967,-0.00001416,0.0
 0000108,0.00009209,0.00000288,-0.00002378,-0.00001293,0.00000265,0.000
 18707,0.00040913,-0.00027418,-0.00009563,0.00007129,0.00002899,0.00105
 403,-0.00228700,-0.00012679,0.00077760,0.00066974,0.00036760,-0.014628
 87,0.00853921,0.00264945,-0.01420510,0.00844559,0.00154349,0.24413950,
 0.00000743,-0.00001210,0.00000662,-0.00002527,0.00000564,-0.00001208,0
 .00002361,-0.00004570,0.00004112,-0.00004588,-0.00002954,-0.00009767,0
 .00004336,0.00003008,0.00001092,0.00000138,-0.00000076,0.00000868,0.00
 000780,-0.00000408,0.00000832,-0.00006558,0.00013923,-0.00010570,-0.00
 000103,-0.00002547,0.00002197,0.00004121,-0.00008141,0.00005142,0.0000
 2402,-0.00006385,0.00002712,-0.00010807,0.00014958,-0.00031515,-0.0003
 1008,-0.00012638,0.00029863,-0.00009184,-0.00008987,-0.00020021,0.0018
 6145,0.00160758,-0.00060827,-0.00003124,0.00001470,0.00020358,-0.00000
 244,0.00000817,-0.00000895,0.02709549,-0.01906308,-0.00410113,0.114452
 11,-0.12108806,-0.01781828,0.00000047,0.00000501,-0.00000308,0.0000048
 7,0.00000525,0.00000030,0.00000418,0.00000412,0.00000350,-0.00000098,-
 0.00000204,-0.00000837,-0.00005267,0.00004347,0.00006383,0.00000284,-0
 .00000102,0.00000450,0.00000454,-0.00000086,0.00000237,0.00006848,0.00
 027468,-0.00000126,-0.00000756,-0.00003257,0.00001925,0.00004319,0.000
 03109,0.00000759,-0.00100558,-0.00002820,0.00055372,-0.00006875,-0.000
 06393,0.00009325,-0.00229143,-0.00578919,-0.00160185,-0.00020508,0.001
 45819,-0.00005551,-0.00123812,0.00028311,0.00092333,-0.01154977,0.0076
 8072,0.00075340,-0.12658507,0.13480752,0.00000231,-0.00000343,0.000004
 10,-0.00000472,-0.00000521,0.00000672,0.00000701,0.00001267,0.00001879
 ,-0.00002970,-0.00001608,-0.00003039,0.00002163,0.00000802,0.00000605,
 -0.00000054,0.00000070,-0.00000156,0.00000736,0.00000068,0.00000582,-0
 .00009595,0.00002830,-0.00000563,0.00006792,-0.00004164,-0.00001310,0.
 00003833,-0.00002707,0.00001134,0.00002722,-0.00002160,0.00000347,-0.0
 0010662,0.00011148,-0.00013310,0.00000363,-0.00012302,0.00003916,0.000
 03129,0.00005881,-0.00006492,-0.00051638,0.00068215,0.00015396,0.00002
 113,-0.00002137,0.00006440,-0.00000113,-0.00000031,-0.00000389,0.00677
 585,-0.00473603,-0.00173659,0.02818231,-0.01789295,-0.05229095,0.00000
 297,0.00000236,-0.00000563,0.00000038,0.00000405,0.00000040,0.00000452
 ,-0.00000011,0.00000267,-0.00000381,0.00000028,-0.00002090,-0.00001073
 ,0.00001822,0.00001033,-0.00000011,-0.00000042,0.00000115,0.00000215,-
 0.00000083,0.00000063,0.00002221,0.00005863,0.00002535,0.00000712,0.00
 000396,0.00000246,-0.00000956,-0.00003847,-0.00002718,-0.00009376,0.00
 002060,0.00034247,-0.00012188,0.00004780,0.00000467,-0.00057928,-0.001
 65145,0.00047322,0.00049031,0.00021085,-0.00001330,-0.02321984,0.01530
 945,0.00452546,0.02035406,-0.01383314,-0.00310493,-0.03127571,0.021834
 11,0.05174942\\-0.00000279,0.00000084,0.00000617,-0.00000787,0.0000107
 5,-0.00001437,0.00001441,0.00000514,0.00000533,-0.00000985,-0.00001662
 ,0.00000352,-0.00000285,0.00001166,-0.00000744,0.00001382,0.00000330,0
 .00000553,-0.00000513,-0.00001451,0.00000388,-0.00000204,0.00000251,0.
 00000699,0.00000185,0.00000112,-0.00000308,-0.00000376,-0.00000043,-0.
 00000580,0.00000036,-0.00000263,0.00000253,0.00000478,-0.00000501,-0.0
 0000897,0.00000087,0.00000571,0.00001112,-0.00000172,0.00000010,-0.000
 00354,-0.00000217,-0.00000221,0.00000600,-0.00000091,0.00000114,0.0000
 0627,-0.00000160,0.00000206,0.00000499,0.00000252,-0.00000095,-0.00000
 445,-0.00000043,0.00000097,0.00000091,0.00000129,-0.00000056,-0.000004
 47,0.00000136,-0.00000049,-0.00000427,0.00000152,-0.00000031,-0.000005
 08,-0.00000232,-0.00000062,-0.00000082,0.00000167,0.00000078,-0.000001
 52,-0.00000100,0.00000009,-0.00000017,0.00000110,0.00000210,-0.0000019
 1,-0.00000263,-0.00000108,0.00000043,0.00000130,-0.00000012,0.00000171
 ,0.00000068,-0.00000097,0.00000191,0.00000090,-0.00000031,0.00000016,0
 .00000120,0.00000052,-0.00000014,-0.00000083,0.00000055,0.00000031,-0.
 00000154,-0.00000053,0.00000114,0.00000026,-0.00000061,-0.00000077,-0.
 00000057,-0.00000087,-0.00000100,0.00000013,-0.00000050,-0.00000112\\\
 @


 ON A CLEAR DISK YOU CAN SEEK FOREVER.
 Job cpu time:       0 days 11 hours 50 minutes 49.0 seconds.
 File lengths (MBytes):  RWF=   1442 Int=      0 D2E=      0 Chk=     39 Scr=      1
 Normal termination of Gaussian 09 at Thu Sep 21 23:11:03 2017.
